GAUSS_SCRDIR is /mnt/scratch/k0102371/60790906
 Entering Gaussian System, Link 0=g16
 AtFile(1): basis.bas
            Fe 0
            6-311+g**
            ****
            C H O N Cl 0
            6-31g**
            ****
 Initial command:
 /mnt/research/peralta/software/gaussian/g16B.03//g16/l1.exe "/mnt/scratch/k0102371/60790906/Gau-4058177.inp" -scrdir="/mnt/scratch/k0102371/60790906/"
 Default linda workers: skl-058,skl-078,skl-092,skl-094,skl-095,skl-103
 Entering Link 1 = /mnt/research/peralta/software/gaussian/g16B.03//g16/l1.exe PID=   4058179.
  
 Copyright (c) 1988-2017, Gaussian, Inc.  All Rights Reserved.
  
 This is part of the Gaussian(R) 16 program.  It is based on
 the Gaussian(R) 09 system (copyright 2009, Gaussian, Inc.),
 the Gaussian(R) 03 system (copyright 2003, Gaussian, Inc.),
 the Gaussian(R) 98 system (copyright 1998, Gaussian, Inc.),
 the Gaussian(R) 94 system (copyright 1995, Gaussian, Inc.),
 the Gaussian 92(TM) system (copyright 1992, Gaussian, Inc.),
 the Gaussian 90(TM) system (copyright 1990, Gaussian, Inc.),
 the Gaussian 88(TM) system (copyright 1988, Gaussian, Inc.),
 the Gaussian 86(TM) system (copyright 1986, Carnegie Mellon
 University), and the Gaussian 82(TM) system (copyright 1983,
 Carnegie Mellon University). Gaussian is a federally registered
 trademark of Gaussian, Inc.
  
 This software contains proprietary and confidential information,
 including trade secrets, belonging to Gaussian, Inc.
  
 This software is provided under written license and may be
 used, copied, transmitted, or stored only in accord with that
 written license.
  
 The following legend is applicable only to US Government
 contracts under FAR:
  
                    RESTRICTED RIGHTS LEGEND
  
 Use, reproduction and disclosure by the US Government is
 subject to restrictions as set forth in subparagraphs (a)
 and (c) of the Commercial Computer Software - Restricted
 Rights clause in FAR 52.227-19.
  
 Gaussian, Inc.
 340 Quinnipiac St., Bldg. 40, Wallingford CT 06492
  
  
 ---------------------------------------------------------------
 Warning -- This program may not be used in any manner that
 competes with the business of Gaussian, Inc. or will provide
 assistance to any competitor of Gaussian, Inc.  The licensee
 of this program is prohibited from giving any competitor of
 Gaussian, Inc. access to this program.  By using this program,
 the user acknowledges that Gaussian, Inc. is engaged in the
 business of creating and licensing software in the field of
 computational chemistry and represents and warrants to the
 licensee that it is not a competitor of Gaussian, Inc. and that
 it will not use this program in any manner prohibited above.
 ---------------------------------------------------------------
  

 Cite this work as:
 Gaussian 16, Revision B.01,
 M. J. Frisch, G. W. Trucks, H. B. Schlegel, G. E. Scuseria, 
 M. A. Robb, J. R. Cheeseman, G. Scalmani, V. Barone, 
 G. A. Petersson, H. Nakatsuji, X. Li, M. Caricato, A. V. Marenich, 
 J. Bloino, B. G. Janesko, R. Gomperts, B. Mennucci, H. P. Hratchian, 
 J. V. Ortiz, A. F. Izmaylov, J. L. Sonnenberg, D. Williams-Young, 
 F. Ding, F. Lipparini, F. Egidi, J. Goings, B. Peng, A. Petrone, 
 T. Henderson, D. Ranasinghe, V. G. Zakrzewski, J. Gao, N. Rega, 
 G. Zheng, W. Liang, M. Hada, M. Ehara, K. Toyota, R. Fukuda, 
 J. Hasegawa, M. Ishida, T. Nakajima, Y. Honda, O. Kitao, H. Nakai, 
 T. Vreven, K. Throssell, J. A. Montgomery, Jr., J. E. Peralta, 
 F. Ogliaro, M. J. Bearpark, J. J. Heyd, E. N. Brothers, K. N. Kudin, 
 V. N. Staroverov, T. A. Keith, R. Kobayashi, J. Normand, 
 K. Raghavachari, A. P. Rendell, J. C. Burant, S. S. Iyengar, 
 J. Tomasi, M. Cossi, J. M. Millam, M. Klene, C. Adamo, R. Cammi, 
 J. W. Ochterski, R. L. Martin, K. Morokuma, O. Farkas, 
 J. B. Foresman, and D. J. Fox, Gaussian, Inc., Wallingford CT, 2016.
 
 ******************************************
 Gaussian 16:  ES64L-G16RevB.01 20-Dec-2017
                 7-Sep-2025 
 ******************************************
 %nprocshared=8
 Will use up to    8 processors via shared memory.
 %LindaWorkers=skl-058,skl-078,skl-092,skl-094,skl-095,skl-103
 %subst l401 /mnt/research/peralta/software/gaussian/g16B.03/g16-local/
 %subst l502 /mnt/research/peralta/software/gaussian/g16B.03/g16-local/
 %chk=Fe3-PBEh1PBE.3.chk
 %mem=24Gb
 SetLPE:    new flags="-opt 'Tsnet.Node.lindarsharg: ssh'  -nodelist 'skl-058.i skl-078.i skl-092.i skl-094.i skl-095.i skl-103.i' -env GAUSS_MDEF=3221225472 -env GAUSS_EXEDIR="/mnt/research/peralta/software/gaussian/g16B.03//g16/bsd:/mnt/research/peralta/software/gaussian/g16B.03//g16""
 Will use up to    6 processors via Linda.
 ----------------------------------------------------------------------
 #p nosymm test PBEh1PBE/Gen geom=CheckPoint guess=read scf(conver=8) i
 op(4/151=1)
 ----------------------------------------------------------------------
 1/29=2,38=1,172=1/1;
 2/12=2,15=1,40=1/2;
 3/5=7,11=2,14=-4,25=1,30=1,74=-26,116=-2/1,2,3;
 4/5=1,151=1/1;
 5/5=2,6=8,38=6/2;
 6/7=2,8=2,9=2,10=2,28=1/1;
 99/5=1,9=1/99;
 Leave Link    1 at Sun Sep  7 22:56:39 2025, MaxMem=  3221225472 cpu:               5.5 elap:               0.8
 (Enter /mnt/research/peralta/software/gaussian/g16B.03//g16/l101.exe)
 ----------------------------------------------
 SCF calculation flipping: 2 atoms Fe3 PBEh1PBE
 ----------------------------------------------
 Structure from the checkpoint file:  "Fe3-PBEh1PBE.3.chk"
 Charge =  0 Multiplicity = 6
 Z-Matrix found in chk file.
 Fe,0,-0.439941,0.175786,10.830498
 Fe,0,2.377917,2.399541,10.118445
 Fe,0,-0.538104,3.149791,10.365879
 O,0,-1.572873,1.774281,11.349062
 O,0,1.08689,3.818712,9.430202
 O,0,0.793712,1.502268,10.43966
 Cl,0,0.500735,-1.841989,10.28472
 Cl,0,4.061527,0.979902,10.875756
 Cl,0,-2.045629,4.839339,10.360254
 O,0,-1.452491,0.232414,9.035491
 O,0,2.440929,3.450852,11.884644
 O,0,-1.284914,2.433222,8.599011
 O,0,0.24124,3.808827,12.13259
 N,0,-2.253102,-0.827907,11.766118
 N,0,0.10104,-0.092492,12.908186
 N,0,2.703519,1.654227,8.116747
 N,0,3.819427,3.867722,9.183296
 C,0,-2.955108,1.513169,11.468528
 C,0,1.922604,0.721133,7.531337
 H,0,1.128478,0.437129,7.968628
 C,0,-1.687659,1.271967,8.338006
 C,0,-3.087223,0.259392,12.319401
 H,0,-2.802896,0.456458,13.246988
 H,0,-4.034362,-0.027837,12.342157
 C,0,4.627274,3.116901,8.20907
 H,0,5.378447,2.674569,8.678303
 H,0,5.009005,3.745668,7.546489
 C,0,1.677133,5.095469,9.271916
 C,0,3.810475,2.083276,7.497515
 C,0,1.103427,0.564236,13.520041
 H,0,1.634913,1.166721,13.013083
 C,0,2.971267,4.879776,8.487491
 H,0,2.75916,4.5659,7.572834
 H,0,3.46413,5.735248,8.414351
 C,0,2.257565,0.169685,6.304436
 H,0,1.699119,-0.486592,5.904513
 C,0,-1.710298,-1.68609,12.829235
 H,0,-1.33149,-2.507959,12.42783
 H,0,-2.440538,-1.952889,13.442158
 C,0,-0.63729,-0.968131,13.609544
 C,0,1.423149,3.900651,12.509159
 C,0,4.706428,4.529322,10.170509
 H,0,5.356019,5.092509,9.700136
 H,0,5.181144,3.848175,10.691167
 H,0,4.168271,5.084513,10.772652
 C,0,-3.031206,-1.653331,10.818963
 H,0,-3.741193,-2.124426,11.303107
 H,0,-2.438543,-2.306316,10.391469
 H,0,-3.429888,-1.07663,10.134224
 C,0,3.411853,0.584586,5.669696
 H,0,3.66315,0.203928,4.836354
 C,0,4.193193,1.551236,6.25223
 H,0,4.982098,1.857108,5.820293
 C,0,-0.385618,-1.202707,14.952564
 H,0,-0.912282,-1.829714,15.434215
 C,0,1.384555,0.391257,14.859415
 H,0,2.079591,0.88841,15.274448
 C,0,-2.522715,1.082034,7.095939
 H,0,-2.709611,1.954824,6.691344
 H,0,-3.366887,0.644654,7.333589
 H,0,-2.034096,0.523252,6.456087
 C,0,0.63813,-0.518171,15.58971
 H,0,0.823765,-0.670041,16.508924
 C,0,1.661299,4.597152,13.806167
 H,0,2.625524,4.686374,13.95682
 H,0,1.263686,4.075977,14.534654
 H,0,1.251161,5.486795,13.779337
 H,0,-3.3929,1.348043,10.485171
 H,0,-3.455444,2.350544,11.952664
 H,0,1.895308,5.532581,10.245186
 H,0,1.007782,5.753813,8.720125
 Recover connectivity data from disk.
 ITRead=  0  0  0  0  0  0  0  0  0  0  0  0  0  0  0  0  0  0  0  0
 ITRead=  0  0  0  0  0  0  0  0  0  0  0  0  0  0  0  0  0  0  0  0
 ITRead=  0  0  0  0  0  0  0  0  0  0  0  0  0  0  0  0  0  0  0  0
 ITRead=  0  0  0  0  0  0  0  0  0  0  0
 MicOpt= -1 -1 -1 -1 -1 -1 -1 -1 -1 -1 -1 -1 -1 -1 -1 -1 -1 -1 -1 -1
 MicOpt= -1 -1 -1 -1 -1 -1 -1 -1 -1 -1 -1 -1 -1 -1 -1 -1 -1 -1 -1 -1
 MicOpt= -1 -1 -1 -1 -1 -1 -1 -1 -1 -1 -1 -1 -1 -1 -1 -1 -1 -1 -1 -1
 MicOpt= -1 -1 -1 -1 -1 -1 -1 -1 -1 -1 -1
 NAtoms=     71 NQM=       71 NQMF=       0 NMMI=      0 NMMIF=      0
                NMic=       0 NMicF=      0.
                    Isotopes and Nuclear Properties:
 (Nuclear quadrupole moments (NQMom) in fm**2, nuclear magnetic moments (NMagM)
  in nuclear magnetons)

  Atom         1           2           3           4           5           6           7           8           9          10
 IAtWgt=          56          56          56          16          16          16          35          35          35          16
 AtmWgt=  55.9349393  55.9349393  55.9349393  15.9949146  15.9949146  15.9949146  34.9688527  34.9688527  34.9688527  15.9949146
 NucSpn=           0           0           0           0           0           0           3           3           3           0
 AtZEff=  25.2200000  25.2200000  25.2200000   5.6000000   5.6000000   5.6000000  14.2400000  14.2400000  14.2400000   5.6000000
 NQMom=    0.0000000   0.0000000   0.0000000   0.0000000   0.0000000   0.0000000  -8.1650000  -8.1650000  -8.1650000   0.0000000
 NMagM=    0.0000000   0.0000000   0.0000000   0.0000000   0.0000000   0.0000000   0.8218740   0.8218740   0.8218740   0.0000000
 AtZNuc=  26.0000000  26.0000000  26.0000000   8.0000000   8.0000000   8.0000000  17.0000000  17.0000000  17.0000000   8.0000000

  Atom        11          12          13          14          15          16          17          18          19          20
 IAtWgt=          16          16          16          14          14          14          14          12          12           1
 AtmWgt=  15.9949146  15.9949146  15.9949146  14.0030740  14.0030740  14.0030740  14.0030740  12.0000000  12.0000000   1.0078250
 NucSpn=           0           0           0           2           2           2           2           0           0           1
 AtZEff=   5.6000000   5.6000000   5.6000000   4.5500000   4.5500000   4.5500000   4.5500000   3.6000000   3.6000000   1.0000000
 NQMom=    0.0000000   0.0000000   0.0000000   2.0440000   2.0440000   2.0440000   2.0440000   0.0000000   0.0000000   0.0000000
 NMagM=    0.0000000   0.0000000   0.0000000   0.4037610   0.4037610   0.4037610   0.4037610   0.0000000   0.0000000   2.7928460
 AtZNuc=   8.0000000   8.0000000   8.0000000   7.0000000   7.0000000   7.0000000   7.0000000   6.0000000   6.0000000   1.0000000

  Atom        21          22          23          24          25          26          27          28          29          30
 IAtWgt=          12          12           1           1          12           1           1          12          12          12
 AtmWgt=  12.0000000  12.0000000   1.0078250   1.0078250  12.0000000   1.0078250   1.0078250  12.0000000  12.0000000  12.0000000
 NucSpn=           0           0           1           1           0           1           1           0           0           0
 AtZEff=   3.6000000   3.6000000   1.0000000   1.0000000   3.6000000   1.0000000   1.0000000   3.6000000   3.6000000   3.6000000
 NQMom=    0.0000000   0.0000000   0.0000000   0.0000000   0.0000000   0.0000000   0.0000000   0.0000000   0.0000000   0.0000000
 NMagM=    0.0000000   0.0000000   2.7928460   2.7928460   0.0000000   2.7928460   2.7928460   0.0000000   0.0000000   0.0000000
 AtZNuc=   6.0000000   6.0000000   1.0000000   1.0000000   6.0000000   1.0000000   1.0000000   6.0000000   6.0000000   6.0000000

  Atom        31          32          33          34          35          36          37          38          39          40
 IAtWgt=           1          12           1           1          12           1          12           1           1          12
 AtmWgt=   1.0078250  12.0000000   1.0078250   1.0078250  12.0000000   1.0078250  12.0000000   1.0078250   1.0078250  12.0000000
 NucSpn=           1           0           1           1           0           1           0           1           1           0
 AtZEff=   1.0000000   3.6000000   1.0000000   1.0000000   3.6000000   1.0000000   3.6000000   1.0000000   1.0000000   3.6000000
 NQMom=    0.0000000   0.0000000   0.0000000   0.0000000   0.0000000   0.0000000   0.0000000   0.0000000   0.0000000   0.0000000
 NMagM=    2.7928460   0.0000000   2.7928460   2.7928460   0.0000000   2.7928460   0.0000000   2.7928460   2.7928460   0.0000000
 AtZNuc=   1.0000000   6.0000000   1.0000000   1.0000000   6.0000000   1.0000000   6.0000000   1.0000000   1.0000000   6.0000000

  Atom        41          42          43          44          45          46          47          48          49          50
 IAtWgt=          12          12           1           1           1          12           1           1           1          12
 AtmWgt=  12.0000000  12.0000000   1.0078250   1.0078250   1.0078250  12.0000000   1.0078250   1.0078250   1.0078250  12.0000000
 NucSpn=           0           0           1           1           1           0           1           1           1           0
 AtZEff=   3.6000000   3.6000000   1.0000000   1.0000000   1.0000000   3.6000000   1.0000000   1.0000000   1.0000000   3.6000000
 NQMom=    0.0000000   0.0000000   0.0000000   0.0000000   0.0000000   0.0000000   0.0000000   0.0000000   0.0000000   0.0000000
 NMagM=    0.0000000   0.0000000   2.7928460   2.7928460   2.7928460   0.0000000   2.7928460   2.7928460   2.7928460   0.0000000
 AtZNuc=   6.0000000   6.0000000   1.0000000   1.0000000   1.0000000   6.0000000   1.0000000   1.0000000   1.0000000   6.0000000

  Atom        51          52          53          54          55          56          57          58          59          60
 IAtWgt=           1          12           1          12           1          12           1          12           1           1
 AtmWgt=   1.0078250  12.0000000   1.0078250  12.0000000   1.0078250  12.0000000   1.0078250  12.0000000   1.0078250   1.0078250
 NucSpn=           1           0           1           0           1           0           1           0           1           1
 AtZEff=   1.0000000   3.6000000   1.0000000   3.6000000   1.0000000   3.6000000   1.0000000   3.6000000   1.0000000   1.0000000
 NQMom=    0.0000000   0.0000000   0.0000000   0.0000000   0.0000000   0.0000000   0.0000000   0.0000000   0.0000000   0.0000000
 NMagM=    2.7928460   0.0000000   2.7928460   0.0000000   2.7928460   0.0000000   2.7928460   0.0000000   2.7928460   2.7928460
 AtZNuc=   1.0000000   6.0000000   1.0000000   6.0000000   1.0000000   6.0000000   1.0000000   6.0000000   1.0000000   1.0000000

  Atom        61          62          63          64          65          66          67          68          69          70
 IAtWgt=           1          12           1          12           1           1           1           1           1           1
 AtmWgt=   1.0078250  12.0000000   1.0078250  12.0000000   1.0078250   1.0078250   1.0078250   1.0078250   1.0078250   1.0078250
 NucSpn=           1           0           1           0           1           1           1           1           1           1
 AtZEff=   1.0000000   3.6000000   1.0000000   3.6000000   1.0000000   1.0000000   1.0000000   1.0000000   1.0000000   1.0000000
 NQMom=    0.0000000   0.0000000   0.0000000   0.0000000   0.0000000   0.0000000   0.0000000   0.0000000   0.0000000   0.0000000
 NMagM=    2.7928460   0.0000000   2.7928460   0.0000000   2.7928460   2.7928460   2.7928460   2.7928460   2.7928460   2.7928460
 AtZNuc=   1.0000000   6.0000000   1.0000000   6.0000000   1.0000000   1.0000000   1.0000000   1.0000000   1.0000000   1.0000000

  Atom        71
 IAtWgt=           1
 AtmWgt=   1.0078250
 NucSpn=           1
 AtZEff=   1.0000000
 NQMom=    0.0000000
 NMagM=    2.7928460
 AtZNuc=   1.0000000
 Leave Link  101 at Sun Sep  7 22:56:39 2025, MaxMem=  3221225472 cpu:               2.7 elap:               0.4
 (Enter /mnt/research/peralta/software/gaussian/g16B.03//g16/l202.exe)
 Symmetry turned off by external request.
 Stoichiometry    C22H32Cl3Fe3N4O7(6)
 Framework group  C1[X(C22H32Cl3Fe3N4O7)]
 Deg. of freedom   207
 Full point group                 C1      NOp   1
                          Input orientation:                          
 ---------------------------------------------------------------------
 Center     Atomic      Atomic             Coordinates (Angstroms)
 Number     Number       Type             X           Y           Z
 ---------------------------------------------------------------------
      1         26           0       -0.439941    0.175786   10.830498
      2         26           0        2.377917    2.399541   10.118445
      3         26           0       -0.538104    3.149791   10.365879
      4          8           0       -1.572873    1.774281   11.349062
      5          8           0        1.086890    3.818712    9.430202
      6          8           0        0.793712    1.502268   10.439660
      7         17           0        0.500735   -1.841989   10.284720
      8         17           0        4.061527    0.979902   10.875756
      9         17           0       -2.045629    4.839339   10.360254
     10          8           0       -1.452491    0.232414    9.035491
     11          8           0        2.440929    3.450852   11.884644
     12          8           0       -1.284914    2.433222    8.599011
     13          8           0        0.241240    3.808827   12.132590
     14          7           0       -2.253102   -0.827907   11.766118
     15          7           0        0.101040   -0.092492   12.908186
     16          7           0        2.703519    1.654227    8.116747
     17          7           0        3.819427    3.867722    9.183296
     18          6           0       -2.955108    1.513169   11.468528
     19          6           0        1.922604    0.721133    7.531337
     20          1           0        1.128478    0.437129    7.968628
     21          6           0       -1.687659    1.271967    8.338006
     22          6           0       -3.087223    0.259392   12.319401
     23          1           0       -2.802896    0.456458   13.246988
     24          1           0       -4.034362   -0.027837   12.342157
     25          6           0        4.627274    3.116901    8.209070
     26          1           0        5.378447    2.674569    8.678303
     27          1           0        5.009005    3.745668    7.546489
     28          6           0        1.677133    5.095469    9.271916
     29          6           0        3.810475    2.083276    7.497515
     30          6           0        1.103427    0.564236   13.520041
     31          1           0        1.634913    1.166721   13.013083
     32          6           0        2.971267    4.879776    8.487491
     33          1           0        2.759160    4.565900    7.572834
     34          1           0        3.464130    5.735248    8.414351
     35          6           0        2.257565    0.169685    6.304436
     36          1           0        1.699119   -0.486592    5.904513
     37          6           0       -1.710298   -1.686090   12.829235
     38          1           0       -1.331490   -2.507959   12.427830
     39          1           0       -2.440538   -1.952889   13.442158
     40          6           0       -0.637290   -0.968131   13.609544
     41          6           0        1.423149    3.900651   12.509159
     42          6           0        4.706428    4.529322   10.170509
     43          1           0        5.356019    5.092509    9.700136
     44          1           0        5.181144    3.848175   10.691167
     45          1           0        4.168271    5.084513   10.772652
     46          6           0       -3.031206   -1.653331   10.818963
     47          1           0       -3.741193   -2.124426   11.303107
     48          1           0       -2.438543   -2.306316   10.391469
     49          1           0       -3.429888   -1.076630   10.134224
     50          6           0        3.411853    0.584586    5.669696
     51          1           0        3.663150    0.203928    4.836354
     52          6           0        4.193193    1.551236    6.252230
     53          1           0        4.982098    1.857108    5.820293
     54          6           0       -0.385618   -1.202707   14.952564
     55          1           0       -0.912282   -1.829714   15.434215
     56          6           0        1.384555    0.391257   14.859415
     57          1           0        2.079591    0.888410   15.274448
     58          6           0       -2.522715    1.082034    7.095939
     59          1           0       -2.709611    1.954824    6.691344
     60          1           0       -3.366887    0.644654    7.333589
     61          1           0       -2.034096    0.523252    6.456087
     62          6           0        0.638130   -0.518171   15.589710
     63          1           0        0.823765   -0.670041   16.508924
     64          6           0        1.661299    4.597152   13.806167
     65          1           0        2.625524    4.686374   13.956820
     66          1           0        1.263686    4.075977   14.534654
     67          1           0        1.251161    5.486795   13.779337
     68          1           0       -3.392900    1.348043   10.485171
     69          1           0       -3.455444    2.350544   11.952664
     70          1           0        1.895308    5.532581   10.245186
     71          1           0        1.007782    5.753813    8.720125
 ---------------------------------------------------------------------
 Rotational constants (GHZ):           0.1047429           0.0699982           0.0677988
 Leave Link  202 at Sun Sep  7 22:56:39 2025, MaxMem=  3221225472 cpu:               0.0 elap:               0.0
 (Enter /mnt/research/peralta/software/gaussian/g16B.03//g16/l301.exe)
 General basis read from cards:  (5D, 7F)
 Centers:       1      2      3
 6-311+g**
 ****
 Centers:      18     19     21     22     25     28     29     30     32     35
 Centers:      37     40     41     42     46     50     52     54     56     58
 Centers:      62     64     20     23     24     26     27     31     33     34
 Centers:      36     38     39     43     44     45     47     48     49     51
 Centers:      53     55     57     59     60     61     63     65     66     67
 Centers:      68     69     70     71      4      5      6     10     11     12
 Centers:      13     14     15     16     17      7      8      9
 6-31g**
 ****
 Ernie: Thresh=  0.10000D-02 Tol=  0.10000D-05 Strict=F.
   850 basis functions,  1586 primitive gaussians,   907 cartesian basis functions
   191 alpha electrons      186 beta electrons
       nuclear repulsion energy      8783.1908191551 Hartrees.
 IExCor= 2709 DFT=T Ex+Corr=PBEh1PBE ExCW=0 ScaHFX=  0.250000
 ScaDFX=  0.750000  0.750000  1.000000  1.000000 ScalE2=  1.000000  1.000000
 IRadAn=      5 IRanWt=     -1 IRanGd=            0 ICorTp=0 IEmpDi=  4
 NAtoms=   71 NActive=   71 NUniq=   71 SFac= 1.00D+00 NAtFMM=   60 NAOKFM=T Big=T
 Integral buffers will be    131072 words long.
 Raffenetti 2 integral format.
 Two-electron integral symmetry is turned off.
 Leave Link  301 at Sun Sep  7 22:56:40 2025, MaxMem=  3221225472 cpu:               0.5 elap:               0.1
 (Enter /mnt/research/peralta/software/gaussian/g16B.03//g16/linda-exe/l302.exel)
 NPDir=0 NMtPBC=     1 NCelOv=     1 NCel=       1 NClECP=     1 NCelD=      1
         NCelK=      1 NCelE2=     1 NClLst=     1 CellRange=     0.0.
 One-electron integrals computed using PRISM.
 NBasis=   850 RedAO= T EigKep=  5.25D-04  NBF=   850
 NBsUse=   850 1.00D-06 EigRej= -1.00D+00 NBFU=   850
 Precomputing XC quadrature grid using
 IXCGrd= 4 IRadAn=           5 IRanWt=          -1 IRanGd=           0 AccXCQ= 0.00D+00.
 Generated NRdTot=       0 NPtTot=           0 NUsed=           0 NTot=          32
 NSgBfM=   880   880   880   880   880 MxSgAt=    71 MxSgA2=    71.
 Leave Link  302 at Sun Sep  7 22:56:47 2025, MaxMem=  3221225472 cpu:              24.6 elap:               3.2
 (Enter /mnt/research/peralta/software/gaussian/g16B.03//g16/l303.exe)
 DipDrv:  MaxL=1.
 Leave Link  303 at Sun Sep  7 22:56:47 2025, MaxMem=  3221225472 cpu:               1.2 elap:               0.2
 (Enter /mnt/research/peralta/software/gaussian/g16B.03/g16-local/l401.exe)
 Initial guess from the checkpoint file:  "Fe3-PBEh1PBE.3.chk"
 B after Tr=     0.000000    0.000000    0.000000
         Rot=    1.000000    0.000000    0.000000    0.000000 Ang=   0.00 deg.
 Guess basis will be translated and rotated to current coordinates.
 JPrj=2 DoOrth=T DoCkMO=T.
 Initial guess <Sx>= 0.0000 <Sy>= 0.0000 <Sz>= 2.5000 <S**2>=11.7582 S= 2.9653
 Massaging initial Density matrix for AFM guess.
 Atoms chosen for inverting spin-density: 
    2
 Basis to be inverted:
   59  60  61  62  63  64  65  66  67  68  69  70  71  72  73  74  75  76
   77  78  79  80  81  82  83  84  85  86  87  88  89  90  91  92  93  94
   95  96  97  98  99 100 101 102 103 104 105 106 107 108 109 110 111 112
  113 114 115 116
 Scaling the spin-density for the requested atoms.
 Scaling factor =   -1.000000000000000     
 NMTPBC=                       1
 Leave Link  401 at Sun Sep  7 22:56:54 2025, MaxMem=  3221225472 cpu:              52.1 elap:               6.6
 (Enter /mnt/research/peralta/software/gaussian/g16B.03/g16-local/l502.exe)
 Two-electron integral symmetry not used.
 UHF open shell SCF:
 Using DIIS extrapolation, IDIIS=  1040.
 NGot=  3221225472 LenX=  3219565874 LenY=  3218742318
 Requested convergence on RMS density matrix=1.00D-08 within 128 cycles.
 Requested convergence on MAX density matrix=1.00D-06.
 Requested convergence on             energy=1.00D-06.
 No special actions if energy rises.
 Error in input density:  TNEA=    188.6341 NAE=   191 TNEB=    188.3659 NBE=   186.
 Input dens not normalized.... using spin-flip?
 Fock matrices will be formed incrementally for  20 cycles.

 Cycle   1  Pass 1  IDiag  1:
 FoFJK:  IHMeth= 1 ICntrl=       0 DoSepK=F KAlg= 0 I1Cent=           0 FoldK=F
 IRaf= 860000000 NMat=       1 IRICut=       1 DoRegI=T DoRafI=F ISym2E= 0 IDoP0=0 IntGTp=1.
 FoFCou: FMM=T IPFlag=           0 FMFlag=      100000 FMFlg1=        2001
         NFxFlg=           0 DoJE=F BraDBF=F KetDBF=F FulRan=T
         wScrn=  0.000000 ICntrl=         0 IOpCl=  1 I1Cent=           0 NGrid=           0
         NMat0=    1 NMatS0=      1 NMatT0=    0 NMatD0=    1 NMtDS0=    0 NMtDT0=    0
 Symmetry not used in FoFCou.
 FMM levels:  10  Number of levels for PrismC:   9
 E= -6770.93921264657    
 DIIS: error= 5.04D-02 at cycle   1 NSaved=   1.
 NSaved= 1 IEnMin= 1 EnMin= -6770.93921264657     IErMin= 1 ErrMin= 5.04D-02
 ErrMax= 5.04D-02  0.00D+00 EMaxC= 1.00D-01 BMatC= 7.62D+00 BMatP= 7.62D+00
 IDIUse=3 WtCom= 4.96D-01 WtEn= 5.04D-01
 Coeff-Com:  0.100D+01
 Coeff-En:   0.100D+01
 Coeff:      0.100D+01
 Gap=    -0.191 Goal=   None    Shift=    0.000
 Gap=     0.181 Goal=   None    Shift=    0.000
 GapD=   -0.191 DampG=0.250 DampE=0.250 DampFc=0.1250 IDamp=-1.
 Damping current iteration by 1.25D-01
 RMSDP=2.18D-02 MaxDP=8.55D+00              OVMax= 9.99D-01

 Cycle   2  Pass 1  IDiag  1:
 RMSU=  2.72D-03    CP:  9.98D-01
 E= -6771.17962390271     Delta-E=       -0.240411256149 Rises=F Damp=T
 DIIS: error= 4.51D-02 at cycle   2 NSaved=   2.
 NSaved= 2 IEnMin= 2 EnMin= -6771.17962390271     IErMin= 2 ErrMin= 4.51D-02
 ErrMax= 4.51D-02  0.00D+00 EMaxC= 1.00D-01 BMatC= 1.79D+00 BMatP= 7.62D+00
 IDIUse=3 WtCom= 5.49D-01 WtEn= 4.51D-01
 Coeff-Com: -0.148D+00 0.115D+01
 Coeff-En:   0.321D+00 0.679D+00
 Coeff:      0.632D-01 0.937D+00
 Gap=    -0.116 Goal=   None    Shift=    0.000
 Gap=     0.035 Goal=   None    Shift=    0.000
 RMSDP=3.34D-03 MaxDP=1.08D+00 DE=-2.40D-01 OVMax= 9.66D-01

 Cycle   3  Pass 1  IDiag  1:
 RMSU=  2.16D-03    CP:  9.90D-01  6.43D-02
 E= -6769.53648771511     Delta-E=        1.643136187604 Rises=F Damp=F
 DIIS: error= 4.25D-02 at cycle   3 NSaved=   3.
 NSaved= 3 IEnMin= 2 EnMin= -6771.17962390271     IErMin= 3 ErrMin= 4.25D-02
 ErrMax= 4.25D-02  0.00D+00 EMaxC= 1.00D-01 BMatC= 1.37D+01 BMatP= 1.79D+00
 IDIUse=2 WtCom= 0.00D+00 WtEn= 1.00D+00
 EnCoef did     3 forward-backward iterations
 Coeff-En:   0.606D+00 0.593D-01 0.334D+00
 Coeff:      0.606D+00 0.593D-01 0.334D+00
 Gap=    -0.332 Goal=   None    Shift=    0.000
 Gap=    -0.169 Goal=   None    Shift=    0.000
 RMSDP=9.05D-03 MaxDP=5.80D+00 DE= 1.64D+00 OVMax= 9.97D-01

 Cycle   4  Pass 1  IDiag  1:
 RMSU=  7.87D-03    CP:  9.86D-01  1.61D+00  3.14D-01
 E= -6745.75903054396     Delta-E=       23.777457171145 Rises=F Damp=F
 DIIS: error= 1.03D-01 at cycle   4 NSaved=   4.
 NSaved= 4 IEnMin= 2 EnMin= -6771.17962390271     IErMin= 3 ErrMin= 4.25D-02
 ErrMax= 1.03D-01  0.00D+00 EMaxC= 1.00D-01 BMatC= 1.02D+02 BMatP= 1.79D+00
 IDIUse=2 WtCom= 0.00D+00 WtEn= 1.00D+00
 EnCoef did   100 forward-backward iterations
 Coeff-En:   0.535D+00 0.121D-01 0.384D+00 0.686D-01
 Coeff:      0.535D+00 0.121D-01 0.384D+00 0.686D-01
 Gap=    -0.033 Goal=   None    Shift=    0.000
 Gap=     0.141 Goal=   None    Shift=    0.000
 RMSDP=8.73D-03 MaxDP=5.80D+00 DE= 2.38D+01 OVMax= 9.71D-01

 Cycle   5  Pass 1  IDiag  1:
 RMSU=  1.94D-03    CP:  9.91D-01  8.77D-02  4.30D-01  5.64D-02
 E= -6767.41628560041     Delta-E=      -21.657255056445 Rises=F Damp=F
 DIIS: error= 7.47D-02 at cycle   5 NSaved=   5.
 NSaved= 5 IEnMin= 2 EnMin= -6771.17962390271     IErMin= 3 ErrMin= 4.25D-02
 ErrMax= 7.47D-02  0.00D+00 EMaxC= 1.00D-01 BMatC= 2.82D+01 BMatP= 1.79D+00
 IDIUse=2 WtCom= 0.00D+00 WtEn= 1.00D+00
 EnCoef did   100 forward-backward iterations
 Coeff-En:   0.380D+00 0.105D-01 0.385D+00 0.000D+00 0.225D+00
 Coeff:      0.380D+00 0.105D-01 0.385D+00 0.000D+00 0.225D+00
 Gap=     0.002 Goal=   None    Shift=    0.000
 Gap=     0.024 Goal=   None    Shift=    0.000
 RMSDP=1.84D-03 MaxDP=1.47D-01 DE=-2.17D+01 OVMax= 8.18D-01

 Cycle   6  Pass 1  IDiag  1:
 RMSU=  1.23D-03    CP:  9.91D-01  6.87D-02  6.80D-01  2.09D-02  3.66D-01
 E= -6771.75382885290     Delta-E=       -4.337543252494 Rises=F Damp=F
 DIIS: error= 1.52D-02 at cycle   6 NSaved=   6.
 NSaved= 6 IEnMin= 6 EnMin= -6771.75382885290     IErMin= 6 ErrMin= 1.52D-02
 ErrMax= 1.52D-02  0.00D+00 EMaxC= 1.00D-01 BMatC= 2.45D+00 BMatP= 1.79D+00
 IDIUse=2 WtCom= 0.00D+00 WtEn= 1.00D+00
 EnCoef did    12 forward-backward iterations
 Coeff-En:   0.113D+00 0.000D+00 0.218D-01 0.000D+00 0.137D+00 0.729D+00
 Coeff:      0.113D+00 0.000D+00 0.218D-01 0.000D+00 0.137D+00 0.729D+00
 Gap=     0.096 Goal=   None    Shift=    0.000
 Gap=    -0.013 Goal=   None    Shift=    0.000
 RMSDP=2.69D-03 MaxDP=4.69D-01 DE=-4.34D+00 OVMax= 9.17D-01

 Cycle   7  Pass 1  IDiag  1:
 RMSU=  2.28D-03    CP:  9.74D-01  3.65D-02  5.07D-01  3.04D-02  4.66D-01
                    CP: -9.38D-02
 E= -6755.35324677341     Delta-E=       16.400582079496 Rises=F Damp=F
 DIIS: error= 1.39D-01 at cycle   7 NSaved=   7.
 NSaved= 7 IEnMin= 6 EnMin= -6771.75382885290     IErMin= 6 ErrMin= 1.52D-02
 ErrMax= 1.39D-01  0.00D+00 EMaxC= 1.00D-01 BMatC= 8.39D+01 BMatP= 1.79D+00
 IDIUse=2 WtCom= 0.00D+00 WtEn= 1.00D+00
 EnCoef did     8 forward-backward iterations
 Coeff-En:   0.000D+00 0.000D+00 0.000D+00 0.000D+00 0.969D-01 0.840D+00
 Coeff-En:   0.631D-01
 Coeff:      0.000D+00 0.000D+00 0.000D+00 0.000D+00 0.969D-01 0.840D+00
 Coeff:      0.631D-01
 Gap=    -0.021 Goal=   None    Shift=    0.000
 Gap=    -0.081 Goal=   None    Shift=    0.000
 RMSDP=2.22D-03 MaxDP=4.81D-01 DE= 1.64D+01 OVMax= 8.72D-01

 Cycle   8  Pass 1  IDiag  1:
 RMSU=  1.57D-03    CP:  9.84D-01  1.74D-02  3.29D-01  2.80D-02  4.90D-01
                    CP: -1.71D-03  3.35D-01
 E= -6766.18894430741     Delta-E=      -10.835697534005 Rises=F Damp=F
 DIIS: error= 8.70D-02 at cycle   8 NSaved=   8.
 NSaved= 8 IEnMin= 6 EnMin= -6771.75382885290     IErMin= 6 ErrMin= 1.52D-02
 ErrMax= 8.70D-02  0.00D+00 EMaxC= 1.00D-01 BMatC= 3.51D+01 BMatP= 1.79D+00
 IDIUse=2 WtCom= 0.00D+00 WtEn= 1.00D+00
 EnCoef did     8 forward-backward iterations
 Coeff-En:   0.000D+00 0.000D+00 0.000D+00 0.000D+00 0.268D-01 0.823D+00
 Coeff-En:   0.125D-01 0.138D+00
 Coeff:      0.000D+00 0.000D+00 0.000D+00 0.000D+00 0.268D-01 0.823D+00
 Coeff:      0.125D-01 0.138D+00
 Gap=     0.022 Goal=   None    Shift=    0.000
 Gap=     0.093 Goal=   None    Shift=    0.000
 RMSDP=1.48D-03 MaxDP=4.31D-01 DE=-1.08D+01 OVMax= 6.50D-01

 Cycle   9  Pass 1  IDiag  1:
 RMSU=  9.34D-04    CP:  9.86D-01  5.08D-02  5.89D-01  3.11D-02  5.52D-01
                    CP:  1.04D-01  2.67D-01  3.78D-01
 E= -6770.22172696677     Delta-E=       -4.032782659355 Rises=F Damp=F
 DIIS: error= 4.97D-02 at cycle   9 NSaved=   9.
 NSaved= 9 IEnMin= 6 EnMin= -6771.75382885290     IErMin= 6 ErrMin= 1.52D-02
 ErrMax= 4.97D-02  0.00D+00 EMaxC= 1.00D-01 BMatC= 1.20D+01 BMatP= 1.79D+00
 IDIUse=2 WtCom= 0.00D+00 WtEn= 1.00D+00
 EnCoef did     5 forward-backward iterations
 Coeff-En:   0.000D+00 0.000D+00 0.000D+00 0.000D+00 0.000D+00 0.710D+00
 Coeff-En:   0.000D+00 0.499D-02 0.285D+00
 Coeff:      0.000D+00 0.000D+00 0.000D+00 0.000D+00 0.000D+00 0.710D+00
 Coeff:      0.000D+00 0.499D-02 0.285D+00
 Gap=     0.053 Goal=   None    Shift=    0.000
 Gap=     0.022 Goal=   None    Shift=    0.000
 RMSDP=1.44D-03 MaxDP=2.39D-01 DE=-4.03D+00 OVMax= 6.55D-01

 Cycle  10  Pass 1  IDiag  1:
 RMSU=  8.92D-04    CP:  9.85D-01  3.00D-02  5.98D-01  1.66D-02  3.11D-01
                    CP:  6.28D-01  2.07D-01  5.38D-01  2.09D-01
 E= -6771.66732342302     Delta-E=       -1.445596456248 Rises=F Damp=F
 DIIS: error= 2.56D-02 at cycle  10 NSaved=  10.
 NSaved=10 IEnMin= 6 EnMin= -6771.75382885290     IErMin= 6 ErrMin= 1.52D-02
 ErrMax= 2.56D-02  0.00D+00 EMaxC= 1.00D-01 BMatC= 3.19D+00 BMatP= 1.79D+00
 IDIUse=2 WtCom= 0.00D+00 WtEn= 1.00D+00
 EnCoef did   100 forward-backward iterations
 Coeff-En:   0.000D+00 0.000D+00 0.000D+00 0.000D+00 0.000D+00 0.592D+00
 Coeff-En:   0.000D+00 0.248D-02 0.206D+00 0.199D+00
 Coeff:      0.000D+00 0.000D+00 0.000D+00 0.000D+00 0.000D+00 0.592D+00
 Coeff:      0.000D+00 0.248D-02 0.206D+00 0.199D+00
 Gap=     0.097 Goal=   None    Shift=    0.000
 Gap=     0.044 Goal=   None    Shift=    0.000
 RMSDP=9.53D-04 MaxDP=1.78D-01 DE=-1.45D+00 OVMax= 5.56D-01

 Cycle  11  Pass 1  IDiag  1:
 RMSU=  6.20D-04    CP:  9.87D-01  5.66D-02  6.89D-01  2.77D-02  4.83D-01
                    CP:  5.56D-01  1.05D-01  3.53D-01  2.69D-01  4.84D-01
 E= -6772.17072045528     Delta-E=       -0.503397032269 Rises=F Damp=F
 DIIS: error= 1.06D-02 at cycle  11 NSaved=  11.
 NSaved=11 IEnMin=11 EnMin= -6772.17072045528     IErMin=11 ErrMin= 1.06D-02
 ErrMax= 1.06D-02  0.00D+00 EMaxC= 1.00D-01 BMatC= 7.19D-01 BMatP= 1.79D+00
 IDIUse=3 WtCom= 8.94D-01 WtEn= 1.06D-01
 EnCoef did     1 forward-backward iterations
 Coeff-Com:  0.162D-01 0.321D-01-0.999D-02-0.148D-02-0.832D-02 0.282D+00
 Coeff-Com:  0.992D-02-0.229D-01 0.734D-02 0.159D+00 0.536D+00
 Coeff-En:   0.000D+00 0.000D+00 0.000D+00 0.000D+00 0.000D+00 0.203D+00
 Coeff-En:   0.000D+00 0.000D+00 0.000D+00 0.316D-01 0.766D+00
 Coeff:      0.145D-01 0.287D-01-0.894D-02-0.132D-02-0.744D-02 0.274D+00
 Coeff:      0.887D-02-0.205D-01 0.656D-02 0.145D+00 0.560D+00
 Gap=     0.114 Goal=   None    Shift=    0.000
 Gap=     0.082 Goal=   None    Shift=    0.000
 RMSDP=3.34D-04 MaxDP=3.33D-02 DE=-5.03D-01 OVMax= 2.23D-01

 Cycle  12  Pass 1  IDiag  1:
 RMSU=  3.13D-04    CP:  9.86D-01  5.53D-02  6.91D-01  2.54D-02  4.50D-01
                    CP:  6.00D-01  9.21D-02  3.36D-01  2.11D-01  4.40D-01
                    CP:  1.03D+00
 E= -6772.28815012983     Delta-E=       -0.117429674545 Rises=F Damp=F
 DIIS: error= 2.57D-03 at cycle  12 NSaved=  12.
 NSaved=12 IEnMin=12 EnMin= -6772.28815012983     IErMin=12 ErrMin= 2.57D-03
 ErrMax= 2.57D-03  0.00D+00 EMaxC= 1.00D-01 BMatC= 6.13D-02 BMatP= 7.19D-01
 IDIUse=3 WtCom= 9.74D-01 WtEn= 2.57D-02
 Coeff-Com:  0.700D-02 0.849D-02 0.346D-02 0.261D-02 0.484D-02 0.977D-01
 Coeff-Com:  0.497D-03-0.162D-01-0.126D-01 0.103D+00 0.997D-01 0.702D+00
 Coeff-En:   0.000D+00 0.000D+00 0.000D+00 0.000D+00 0.000D+00 0.000D+00
 Coeff-En:   0.000D+00 0.000D+00 0.000D+00 0.000D+00 0.000D+00 0.100D+01
 Coeff:      0.682D-02 0.827D-02 0.337D-02 0.254D-02 0.471D-02 0.952D-01
 Coeff:      0.484D-03-0.158D-01-0.123D-01 0.999D-01 0.971D-01 0.710D+00
 Gap=     0.134 Goal=   None    Shift=    0.000
 Gap=     0.122 Goal=   None    Shift=    0.000
 RMSDP=1.86D-04 MaxDP=2.75D-02 DE=-1.17D-01 OVMax= 8.22D-02

 Cycle  13  Pass 1  IDiag  1:
 RMSU=  1.67D-04    CP:  9.86D-01  5.31D-02  6.83D-01  2.45D-02  4.33D-01
                    CP:  6.00D-01  1.02D-01  3.51D-01  1.81D-01  4.55D-01
                    CP:  1.02D+00  1.18D+00
 E= -6772.29867952934     Delta-E=       -0.010529399513 Rises=F Damp=F
 DIIS: error= 2.11D-03 at cycle  13 NSaved=  13.
 NSaved=13 IEnMin=13 EnMin= -6772.29867952934     IErMin=13 ErrMin= 2.11D-03
 ErrMax= 2.11D-03  0.00D+00 EMaxC= 1.00D-01 BMatC= 3.23D-02 BMatP= 6.13D-02
 IDIUse=3 WtCom= 9.79D-01 WtEn= 2.11D-02
 Coeff-Com:  0.763D-02-0.778D-03-0.631D-02 0.121D-02 0.641D-02 0.351D-01
 Coeff-Com: -0.101D-02-0.307D-02-0.332D-03 0.177D-01-0.126D+00 0.472D+00
 Coeff-Com:  0.597D+00
 Coeff-En:   0.000D+00 0.000D+00 0.000D+00 0.000D+00 0.000D+00 0.000D+00
 Coeff-En:   0.000D+00 0.000D+00 0.000D+00 0.000D+00 0.000D+00 0.412D-01
 Coeff-En:   0.959D+00
 Coeff:      0.747D-02-0.761D-03-0.617D-02 0.119D-02 0.628D-02 0.343D-01
 Coeff:     -0.989D-03-0.301D-02-0.325D-03 0.173D-01-0.124D+00 0.463D+00
 Coeff:      0.605D+00
 Gap=     0.154 Goal=   None    Shift=    0.000
 Gap=     0.142 Goal=   None    Shift=    0.000
 RMSDP=1.01D-04 MaxDP=1.84D-02 DE=-1.05D-02 OVMax= 3.60D-02

 Cycle  14  Pass 1  IDiag  1:
 RMSU=  6.91D-05    CP:  9.86D-01  5.23D-02  6.78D-01  2.41D-02  4.28D-01
                    CP:  6.05D-01  9.70D-02  3.43D-01  1.74D-01  4.30D-01
                    CP:  1.02D+00  1.39D+00  9.27D-01
 E= -6772.30550974425     Delta-E=       -0.006830214903 Rises=F Damp=F
 DIIS: error= 5.36D-04 at cycle  14 NSaved=  14.
 NSaved=14 IEnMin=14 EnMin= -6772.30550974425     IErMin=14 ErrMin= 5.36D-04
 ErrMax= 5.36D-04  0.00D+00 EMaxC= 1.00D-01 BMatC= 3.45D-03 BMatP= 3.23D-02
 IDIUse=3 WtCom= 9.95D-01 WtEn= 5.36D-03
 Coeff-Com:  0.197D-03 0.471D-02-0.657D-02 0.707D-03 0.304D-02 0.826D-02
 Coeff-Com: -0.515D-03 0.531D-03 0.117D-02-0.137D-02-0.424D-01 0.840D-01
 Coeff-Com:  0.238D+00 0.711D+00
 Coeff-En:   0.000D+00 0.000D+00 0.000D+00 0.000D+00 0.000D+00 0.000D+00
 Coeff-En:   0.000D+00 0.000D+00 0.000D+00 0.000D+00 0.000D+00 0.000D+00
 Coeff-En:   0.000D+00 0.100D+01
 Coeff:      0.196D-03 0.469D-02-0.654D-02 0.703D-03 0.302D-02 0.821D-02
 Coeff:     -0.512D-03 0.528D-03 0.116D-02-0.136D-02-0.422D-01 0.835D-01
 Coeff:      0.236D+00 0.712D+00
 Gap=     0.156 Goal=   None    Shift=    0.000
 Gap=     0.152 Goal=   None    Shift=    0.000
 RMSDP=5.06D-05 MaxDP=7.79D-03 DE=-6.83D-03 OVMax= 1.81D-02

 Cycle  15  Pass 1  IDiag  1:
 RMSU=  4.34D-05    CP:  9.86D-01  5.27D-02  6.77D-01  2.43D-02  4.28D-01
                    CP:  6.06D-01  9.57D-02  3.39D-01  1.74D-01  4.17D-01
                    CP:  1.03D+00  1.43D+00  1.03D+00  9.52D-01
 E= -6772.30613999424     Delta-E=       -0.000630249993 Rises=F Damp=F
 DIIS: error= 4.41D-04 at cycle  15 NSaved=  15.
 NSaved=15 IEnMin=15 EnMin= -6772.30613999424     IErMin=15 ErrMin= 4.41D-04
 ErrMax= 4.41D-04  0.00D+00 EMaxC= 1.00D-01 BMatC= 2.67D-03 BMatP= 3.45D-03
 IDIUse=3 WtCom= 9.96D-01 WtEn= 4.41D-03
 Coeff-Com: -0.111D-02 0.258D-02-0.344D-02 0.437D-03 0.146D-02-0.274D-02
 Coeff-Com: -0.121D-03 0.741D-03-0.203D-02-0.870D-03 0.421D-01-0.839D-01
 Coeff-Com: -0.865D-01 0.489D+00 0.645D+00
 Coeff-En:   0.000D+00 0.000D+00 0.000D+00 0.000D+00 0.000D+00 0.000D+00
 Coeff-En:   0.000D+00 0.000D+00 0.000D+00 0.000D+00 0.000D+00 0.000D+00
 Coeff-En:   0.000D+00 0.754D-01 0.925D+00
 Coeff:     -0.110D-02 0.257D-02-0.343D-02 0.436D-03 0.146D-02-0.272D-02
 Coeff:     -0.120D-03 0.738D-03-0.202D-02-0.866D-03 0.419D-01-0.836D-01
 Coeff:     -0.861D-01 0.487D+00 0.646D+00
 Gap=     0.155 Goal=   None    Shift=    0.000
 Gap=     0.159 Goal=   None    Shift=    0.000
 RMSDP=3.02D-05 MaxDP=3.61D-03 DE=-6.30D-04 OVMax= 7.03D-03

 Cycle  16  Pass 1  IDiag  1:
 RMSU=  2.00D-05    CP:  9.86D-01  5.23D-02  6.75D-01  2.44D-02  4.28D-01
                    CP:  6.06D-01  9.68D-02  3.40D-01  1.74D-01  4.15D-01
                    CP:  1.03D+00  1.43D+00  1.09D+00  1.22D+00  8.55D-01
 E= -6772.30669039999     Delta-E=       -0.000550405755 Rises=F Damp=F
 DIIS: error= 1.70D-04 at cycle  16 NSaved=  16.
 NSaved=16 IEnMin=16 EnMin= -6772.30669039999     IErMin=16 ErrMin= 1.70D-04
 ErrMax= 1.70D-04  0.00D+00 EMaxC= 1.00D-01 BMatC= 3.93D-04 BMatP= 2.67D-03
 IDIUse=3 WtCom= 9.98D-01 WtEn= 1.70D-03
 Coeff-Com: -0.485D-03 0.694D-03-0.123D-02 0.121D-03 0.864D-03-0.257D-02
 Coeff-Com: -0.182D-03 0.537D-03-0.222D-02 0.310D-03 0.280D-01-0.301D-01
 Coeff-Com: -0.689D-01 0.233D-01 0.193D+00 0.859D+00
 Coeff-En:   0.000D+00 0.000D+00 0.000D+00 0.000D+00 0.000D+00 0.000D+00
 Coeff-En:   0.000D+00 0.000D+00 0.000D+00 0.000D+00 0.000D+00 0.000D+00
 Coeff-En:   0.000D+00 0.000D+00 0.000D+00 0.100D+01
 Coeff:     -0.484D-03 0.693D-03-0.122D-02 0.121D-03 0.863D-03-0.257D-02
 Coeff:     -0.181D-03 0.536D-03-0.222D-02 0.309D-03 0.280D-01-0.301D-01
 Coeff:     -0.688D-01 0.232D-01 0.192D+00 0.860D+00
 Gap=     0.155 Goal=   None    Shift=    0.000
 Gap=     0.161 Goal=   None    Shift=    0.000
 RMSDP=1.60D-05 MaxDP=1.71D-03 DE=-5.50D-04 OVMax= 3.62D-03

 Cycle  17  Pass 1  IDiag  1:
 RMSU=  1.28D-05    CP:  9.86D-01  5.21D-02  6.74D-01  2.44D-02  4.28D-01
                    CP:  6.06D-01  9.68D-02  3.40D-01  1.73D-01  4.14D-01
                    CP:  1.03D+00  1.42D+00  1.11D+00  1.32D+00  9.76D-01
                    CP:  1.03D+00
 E= -6772.30677032874     Delta-E=       -0.000079928748 Rises=F Damp=F
 DIIS: error= 9.38D-05 at cycle  17 NSaved=  17.
 NSaved=17 IEnMin=17 EnMin= -6772.30677032874     IErMin=17 ErrMin= 9.38D-05
 ErrMax= 9.38D-05  0.00D+00 EMaxC= 1.00D-01 BMatC= 1.31D-04 BMatP= 3.93D-04
 IDIUse=1 WtCom= 1.00D+00 WtEn= 0.00D+00
 Coeff-Com:  0.561D-04-0.186D-03-0.448D-03-0.171D-05 0.475D-03 0.781D-04
 Coeff-Com: -0.129D-03 0.380D-04-0.812D-03 0.600D-03 0.493D-02 0.887D-02
 Coeff-Com: -0.896D-02-0.126D+00-0.925D-01 0.543D+00 0.671D+00
 Coeff:      0.561D-04-0.186D-03-0.448D-03-0.171D-05 0.475D-03 0.781D-04
 Coeff:     -0.129D-03 0.380D-04-0.812D-03 0.600D-03 0.493D-02 0.887D-02
 Coeff:     -0.896D-02-0.126D+00-0.925D-01 0.543D+00 0.671D+00
 Gap=     0.155 Goal=   None    Shift=    0.000
 Gap=     0.161 Goal=   None    Shift=    0.000
 RMSDP=7.88D-06 MaxDP=7.87D-04 DE=-7.99D-05 OVMax= 1.81D-03

 Cycle  18  Pass 1  IDiag  1:
 RMSU=  5.18D-06    CP:  9.86D-01  5.22D-02  6.74D-01  2.45D-02  4.28D-01
                    CP:  6.07D-01  9.67D-02  3.40D-01  1.73D-01  4.13D-01
                    CP:  1.03D+00  1.42D+00  1.12D+00  1.33D+00  1.03D+00
                    CP:  1.25D+00  8.62D-01
 E= -6772.30680001401     Delta-E=       -0.000029685270 Rises=F Damp=F
 DIIS: error= 2.65D-05 at cycle  18 NSaved=  18.
 NSaved=18 IEnMin=18 EnMin= -6772.30680001401     IErMin=18 ErrMin= 2.65D-05
 ErrMax= 2.65D-05  0.00D+00 EMaxC= 1.00D-01 BMatC= 1.11D-05 BMatP= 1.31D-04
 IDIUse=1 WtCom= 1.00D+00 WtEn= 0.00D+00
 Coeff-Com: -0.784D-04 0.688D-04-0.205D-03-0.167D-04 0.207D-03 0.524D-03
 Coeff-Com: -0.198D-04-0.109D-03-0.125D-03 0.209D-03-0.612D-03 0.579D-02
 Coeff-Com:  0.345D-02-0.526D-01-0.608D-01 0.153D+00 0.317D+00 0.635D+00
 Coeff:     -0.784D-04 0.688D-04-0.205D-03-0.167D-04 0.207D-03 0.524D-03
 Coeff:     -0.198D-04-0.109D-03-0.125D-03 0.209D-03-0.612D-03 0.579D-02
 Coeff:      0.345D-02-0.526D-01-0.608D-01 0.153D+00 0.317D+00 0.635D+00
 Gap=     0.155 Goal=   None    Shift=    0.000
 Gap=     0.161 Goal=   None    Shift=    0.000
 RMSDP=2.74D-06 MaxDP=3.48D-04 DE=-2.97D-05 OVMax= 4.69D-04

 Cycle  19  Pass 1  IDiag  1:
 RMSU=  2.29D-06    CP:  9.86D-01  5.22D-02  6.74D-01  2.45D-02  4.28D-01
                    CP:  6.07D-01  9.67D-02  3.40D-01  1.73D-01  4.13D-01
                    CP:  1.03D+00  1.42D+00  1.12D+00  1.33D+00  1.03D+00
                    CP:  1.28D+00  8.93D-01  8.16D-01
 E= -6772.30680261184     Delta-E=       -0.000002597830 Rises=F Damp=F
 DIIS: error= 1.92D-05 at cycle  19 NSaved=  19.
 NSaved=19 IEnMin=19 EnMin= -6772.30680261184     IErMin=19 ErrMin= 1.92D-05
 ErrMax= 1.92D-05  0.00D+00 EMaxC= 1.00D-01 BMatC= 3.79D-06 BMatP= 1.11D-05
 IDIUse=1 WtCom= 1.00D+00 WtEn= 0.00D+00
 Coeff-Com: -0.134D-03 0.191D-03-0.565D-04-0.144D-04 0.775D-05 0.304D-03
 Coeff-Com:  0.670D-05-0.209D-04 0.315D-04-0.141D-03-0.647D-03 0.370D-03
 Coeff-Com:  0.202D-02-0.606D-03-0.780D-02 0.932D-02 0.602D-01 0.311D+00
 Coeff-Com:  0.626D+00
 Coeff:     -0.134D-03 0.191D-03-0.565D-04-0.144D-04 0.775D-05 0.304D-03
 Coeff:      0.670D-05-0.209D-04 0.315D-04-0.141D-03-0.647D-03 0.370D-03
 Coeff:      0.202D-02-0.606D-03-0.780D-02 0.932D-02 0.602D-01 0.311D+00
 Coeff:      0.626D+00
 Gap=     0.155 Goal=   None    Shift=    0.000
 Gap=     0.161 Goal=   None    Shift=    0.000
 RMSDP=1.17D-06 MaxDP=1.59D-04 DE=-2.60D-06 OVMax= 2.12D-04

 Cycle  20  Pass 1  IDiag  1:
 RMSU=  9.72D-07    CP:  9.86D-01  5.22D-02  6.74D-01  2.45D-02  4.28D-01
                    CP:  6.07D-01  9.66D-02  3.40D-01  1.73D-01  4.13D-01
                    CP:  1.03D+00  1.42D+00  1.12D+00  1.33D+00  1.03D+00
                    CP:  1.28D+00  9.12D-01  9.12D-01  9.26D-01
 E= -6772.30680323675     Delta-E=       -0.000000624910 Rises=F Damp=F
 DIIS: error= 8.66D-06 at cycle  20 NSaved=  20.
 NSaved=20 IEnMin=20 EnMin= -6772.30680323675     IErMin=20 ErrMin= 8.66D-06
 ErrMax= 8.66D-06  0.00D+00 EMaxC= 1.00D-01 BMatC= 1.11D-06 BMatP= 3.79D-06
 IDIUse=1 WtCom= 1.00D+00 WtEn= 0.00D+00
 Coeff-Com: -0.438D-04 0.603D-04 0.186D-04-0.917D-05-0.292D-04 0.567D-04
 Coeff-Com:  0.927D-05 0.132D-04 0.177D-04-0.148D-03-0.148D-03-0.126D-02
 Coeff-Com: -0.543D-03 0.852D-02 0.841D-02-0.708D-02-0.919D-02 0.579D-01
 Coeff-Com:  0.289D+00 0.654D+00
 Coeff:     -0.438D-04 0.603D-04 0.186D-04-0.917D-05-0.292D-04 0.567D-04
 Coeff:      0.927D-05 0.132D-04 0.177D-04-0.148D-03-0.148D-03-0.126D-02
 Coeff:     -0.543D-03 0.852D-02 0.841D-02-0.708D-02-0.919D-02 0.579D-01
 Coeff:      0.289D+00 0.654D+00
 Gap=     0.155 Goal=   None    Shift=    0.000
 Gap=     0.161 Goal=   None    Shift=    0.000
 RMSDP=7.26D-07 MaxDP=9.68D-05 DE=-6.25D-07 OVMax= 1.51D-04

 Cycle  21  Pass 1  IDiag  1:
 Restarting incremental Fock formation.
 E= -6772.30680350784     Delta-E=       -0.000000271091 Rises=F Damp=F
 DIIS: error= 6.31D-06 at cycle  21 NSaved=  20.
 NSaved=20 IEnMin=20 EnMin= -6772.30680350784     IErMin=20 ErrMin= 6.31D-06
 ErrMax= 6.31D-06  0.00D+00 EMaxC= 1.00D-01 BMatC= 4.24D-07 BMatP= 1.11D-06
 IDIUse=1 WtCom= 1.00D+00 WtEn= 0.00D+00
 Coeff-Com:  0.503D-04-0.745D-04 0.478D-04-0.241D-04-0.112D-03 0.194D-05
 Coeff-Com:  0.205D-05 0.297D-04 0.219D-04-0.481D-05-0.113D-02-0.156D-02
 Coeff-Com:  0.453D-02 0.833D-02-0.861D-03-0.208D-01-0.872D-01-0.123D+00
 Coeff-Com:  0.383D+00 0.839D+00
 Coeff:      0.503D-04-0.745D-04 0.478D-04-0.241D-04-0.112D-03 0.194D-05
 Coeff:      0.205D-05 0.297D-04 0.219D-04-0.481D-05-0.113D-02-0.156D-02
 Coeff:      0.453D-02 0.833D-02-0.861D-03-0.208D-01-0.872D-01-0.123D+00
 Coeff:      0.383D+00 0.839D+00
 Gap=     0.155 Goal=   None    Shift=    0.000
 Gap=     0.161 Goal=   None    Shift=    0.000
 RMSDP=6.45D-07 MaxDP=9.96D-05 DE=-2.71D-07 OVMax= 1.76D-04

 Cycle  22  Pass 1  IDiag  1:
 RMSU=  6.45D-07    CP:  1.00D+00
 E= -6772.30680365677     Delta-E=       -0.000000148924 Rises=F Damp=F
 DIIS: error= 3.82D-06 at cycle  22 NSaved=  20.
 NSaved=20 IEnMin=20 EnMin= -6772.30680365677     IErMin=20 ErrMin= 3.82D-06
 ErrMax= 3.82D-06  0.00D+00 EMaxC= 1.00D-01 BMatC= 6.06D-08 BMatP= 4.24D-07
 IDIUse=1 WtCom= 1.00D+00 WtEn= 0.00D+00
 Coeff-Com:  0.259D-04-0.357D-04 0.169D-04-0.843D-05-0.639D-04-0.245D-06
 Coeff-Com:  0.156D-04 0.627D-04-0.372D-04-0.166D-03-0.511D-03-0.696D-03
 Coeff-Com:  0.105D-02 0.276D-02-0.413D-02-0.472D-01-0.127D+00 0.581D-03
 Coeff-Com:  0.394D+00 0.782D+00
 Coeff:      0.259D-04-0.357D-04 0.169D-04-0.843D-05-0.639D-04-0.245D-06
 Coeff:      0.156D-04 0.627D-04-0.372D-04-0.166D-03-0.511D-03-0.696D-03
 Coeff:      0.105D-02 0.276D-02-0.413D-02-0.472D-01-0.127D+00 0.581D-03
 Coeff:      0.394D+00 0.782D+00
 Gap=     0.155 Goal=   None    Shift=    0.000
 Gap=     0.161 Goal=   None    Shift=    0.000
 RMSDP=3.31D-07 MaxDP=5.14D-05 DE=-1.49D-07 OVMax= 9.45D-05

 Cycle  23  Pass 1  IDiag  1:
 RMSU=  2.69D-07    CP:  1.00D+00  1.30D+00
 E= -6772.30680366544     Delta-E=       -0.000000008667 Rises=F Damp=F
 DIIS: error= 2.47D-06 at cycle  23 NSaved=  20.
 NSaved=20 IEnMin=20 EnMin= -6772.30680366544     IErMin=20 ErrMin= 2.47D-06
 ErrMax= 2.47D-06  0.00D+00 EMaxC= 1.00D-01 BMatC= 2.43D-08 BMatP= 6.06D-08
 IDIUse=1 WtCom= 1.00D+00 WtEn= 0.00D+00
 Coeff-Com:  0.936D-06 0.190D-05-0.655D-06-0.208D-05-0.119D-04 0.350D-05
 Coeff-Com:  0.261D-04-0.214D-04 0.209D-03 0.168D-03-0.150D-02-0.153D-02
 Coeff-Com:  0.855D-03 0.220D-02-0.510D-02-0.399D-01-0.936D-01 0.212D-01
 Coeff-Com:  0.473D+00 0.644D+00
 Coeff:      0.936D-06 0.190D-05-0.655D-06-0.208D-05-0.119D-04 0.350D-05
 Coeff:      0.261D-04-0.214D-04 0.209D-03 0.168D-03-0.150D-02-0.153D-02
 Coeff:      0.855D-03 0.220D-02-0.510D-02-0.399D-01-0.936D-01 0.212D-01
 Coeff:      0.473D+00 0.644D+00
 Gap=     0.155 Goal=   None    Shift=    0.000
 Gap=     0.161 Goal=   None    Shift=    0.000
 RMSDP=1.74D-07 MaxDP=2.03D-05 DE=-8.67D-09 OVMax= 5.48D-05

 Cycle  24  Pass 1  IDiag  1:
 RMSU=  1.39D-07    CP:  1.00D+00  1.45D+00  1.13D+00
 E= -6772.30680374075     Delta-E=       -0.000000075312 Rises=F Damp=F
 DIIS: error= 1.63D-06 at cycle  24 NSaved=  20.
 NSaved=20 IEnMin=20 EnMin= -6772.30680374075     IErMin=20 ErrMin= 1.63D-06
 ErrMax= 1.63D-06  0.00D+00 EMaxC= 1.00D-01 BMatC= 7.74D-09 BMatP= 2.43D-08
 IDIUse=1 WtCom= 1.00D+00 WtEn= 0.00D+00
 Coeff-Com: -0.422D-05 0.704D-05-0.285D-05 0.911D-05-0.300D-05-0.705D-05
 Coeff-Com:  0.269D-04 0.105D-03 0.209D-03-0.367D-03-0.812D-03-0.135D-02
 Coeff-Com:  0.374D-03 0.571D-02 0.914D-02-0.386D-01-0.745D-01 0.424D-01
 Coeff-Com:  0.322D+00 0.735D+00
 Coeff:     -0.422D-05 0.704D-05-0.285D-05 0.911D-05-0.300D-05-0.705D-05
 Coeff:      0.269D-04 0.105D-03 0.209D-03-0.367D-03-0.812D-03-0.135D-02
 Coeff:      0.374D-03 0.571D-02 0.914D-02-0.386D-01-0.745D-01 0.424D-01
 Coeff:      0.322D+00 0.735D+00
 Gap=     0.155 Goal=   None    Shift=    0.000
 Gap=     0.161 Goal=   None    Shift=    0.000
 RMSDP=1.09D-07 MaxDP=1.04D-05 DE=-7.53D-08 OVMax= 3.99D-05

 Cycle  25  Pass 1  IDiag  1:
 RMSU=  7.61D-08    CP:  1.00D+00  1.53D+00  1.32D+00  1.23D+00
 E= -6772.30680374679     Delta-E=       -0.000000006039 Rises=F Damp=F
 DIIS: error= 1.18D-06 at cycle  25 NSaved=  20.
 NSaved=20 IEnMin=20 EnMin= -6772.30680374679     IErMin=20 ErrMin= 1.18D-06
 ErrMax= 1.18D-06  0.00D+00 EMaxC= 1.00D-01 BMatC= 2.42D-09 BMatP= 7.74D-09
 IDIUse=1 WtCom= 1.00D+00 WtEn= 0.00D+00
 Coeff-Com:  0.201D-06-0.153D-05 0.731D-05-0.163D-05-0.154D-04 0.239D-04
 Coeff-Com: -0.529D-04 0.239D-04 0.387D-03 0.219D-03-0.123D-02-0.126D-02
 Coeff-Com:  0.272D-02 0.159D-01 0.183D-01-0.339D-01-0.139D+00-0.895D-01
 Coeff-Com:  0.345D+00 0.882D+00
 Coeff:      0.201D-06-0.153D-05 0.731D-05-0.163D-05-0.154D-04 0.239D-04
 Coeff:     -0.529D-04 0.239D-04 0.387D-03 0.219D-03-0.123D-02-0.126D-02
 Coeff:      0.272D-02 0.159D-01 0.183D-01-0.339D-01-0.139D+00-0.895D-01
 Coeff:      0.345D+00 0.882D+00
 Gap=     0.155 Goal=   None    Shift=    0.000
 Gap=     0.161 Goal=   None    Shift=    0.000
 RMSDP=9.02D-08 MaxDP=9.83D-06 DE=-6.04D-09 OVMax= 3.83D-05

 Cycle  26  Pass 1  IDiag  1:
 RMSU=  4.93D-08    CP:  1.00D+00  1.58D+00  1.47D+00  1.56D+00  1.37D+00
 E= -6772.30680378299     Delta-E=       -0.000000036203 Rises=F Damp=F
 DIIS: error= 6.94D-07 at cycle  26 NSaved=  20.
 NSaved=20 IEnMin=20 EnMin= -6772.30680378299     IErMin=20 ErrMin= 6.94D-07
 ErrMax= 6.94D-07  0.00D+00 EMaxC= 1.00D-01 BMatC= 1.45D-09 BMatP= 2.42D-09
 IDIUse=1 WtCom= 1.00D+00 WtEn= 0.00D+00
 Coeff-Com:  0.774D-06-0.152D-05-0.188D-07-0.142D-05-0.565D-05-0.438D-04
 Coeff-Com: -0.789D-04 0.258D-03 0.409D-03 0.674D-03-0.259D-04-0.324D-03
 Coeff-Com:  0.380D-02 0.264D-01 0.120D-01-0.118D+00-0.242D+00-0.196D+00
 Coeff-Com:  0.606D+00 0.908D+00
 Coeff:      0.774D-06-0.152D-05-0.188D-07-0.142D-05-0.565D-05-0.438D-04
 Coeff:     -0.789D-04 0.258D-03 0.409D-03 0.674D-03-0.259D-04-0.324D-03
 Coeff:      0.380D-02 0.264D-01 0.120D-01-0.118D+00-0.242D+00-0.196D+00
 Coeff:      0.606D+00 0.908D+00
 Gap=     0.155 Goal=   None    Shift=    0.000
 Gap=     0.161 Goal=   None    Shift=    0.000
 RMSDP=9.25D-08 MaxDP=1.04D-05 DE=-3.62D-08 OVMax= 3.90D-05

 Cycle  27  Pass 1  IDiag  1:
 RMSU=  3.33D-08    CP:  1.00D+00  1.63D+00  1.61D+00  1.90D+00  1.98D+00
                    CP:  1.49D+00
 E= -6772.30680377252     Delta-E=        0.000000010468 Rises=F Damp=F
 DIIS: error= 2.37D-07 at cycle  27 NSaved=  20.
 NSaved=20 IEnMin=19 EnMin= -6772.30680378299     IErMin=20 ErrMin= 2.37D-07
 ErrMax= 2.37D-07  0.00D+00 EMaxC= 1.00D-01 BMatC= 3.66D-10 BMatP= 1.45D-09
 IDIUse=1 WtCom= 1.00D+00 WtEn= 0.00D+00
 Coeff-Com:  0.191D-06-0.201D-05 0.256D-05-0.658D-05-0.159D-04-0.519D-04
 Coeff-Com:  0.113D-03 0.218D-03 0.585D-03 0.299D-03 0.122D-03 0.107D-02
 Coeff-Com:  0.105D-01 0.716D-02-0.475D-01-0.112D+00-0.155D+00 0.164D+00
 Coeff-Com:  0.469D+00 0.662D+00
 Coeff:      0.191D-06-0.201D-05 0.256D-05-0.658D-05-0.159D-04-0.519D-04
 Coeff:      0.113D-03 0.218D-03 0.585D-03 0.299D-03 0.122D-03 0.107D-02
 Coeff:      0.105D-01 0.716D-02-0.475D-01-0.112D+00-0.155D+00 0.164D+00
 Coeff:      0.469D+00 0.662D+00
 Gap=     0.155 Goal=   None    Shift=    0.000
 Gap=     0.161 Goal=   None    Shift=    0.000
 RMSDP=3.08D-08 MaxDP=3.50D-06 DE= 1.05D-08 OVMax= 1.28D-05

 Cycle  28  Pass 1  IDiag  1:
 RMSU=  1.60D-08    CP:  1.00D+00  1.65D+00  1.64D+00  1.99D+00  2.16D+00
                    CP:  1.74D+00  1.08D+00
 E= -6772.30680378370     Delta-E=       -0.000000011174 Rises=F Damp=F
 DIIS: error= 1.17D-07 at cycle  28 NSaved=  20.
 NSaved=20 IEnMin=20 EnMin= -6772.30680378370     IErMin=20 ErrMin= 1.17D-07
 ErrMax= 1.17D-07  0.00D+00 EMaxC= 1.00D-01 BMatC= 9.17D-11 BMatP= 3.66D-10
 IDIUse=1 WtCom= 1.00D+00 WtEn= 0.00D+00
 Coeff-Com: -0.760D-06 0.140D-05-0.176D-05 0.823D-06-0.584D-05 0.143D-04
 Coeff-Com:  0.160D-04 0.128D-05 0.705D-04 0.328D-03 0.367D-03-0.255D-02
 Coeff-Com: -0.255D-02 0.918D-02 0.218D-01-0.138D-02-0.105D+00-0.809D-01
 Coeff-Com:  0.336D+00 0.824D+00
 Coeff:     -0.760D-06 0.140D-05-0.176D-05 0.823D-06-0.584D-05 0.143D-04
 Coeff:      0.160D-04 0.128D-05 0.705D-04 0.328D-03 0.367D-03-0.255D-02
 Coeff:     -0.255D-02 0.918D-02 0.218D-01-0.138D-02-0.105D+00-0.809D-01
 Coeff:      0.336D+00 0.824D+00
 Gap=     0.155 Goal=   None    Shift=    0.000
 Gap=     0.161 Goal=   None    Shift=    0.000
 RMSDP=1.59D-08 MaxDP=1.71D-06 DE=-1.12D-08 OVMax= 5.69D-06

 Cycle  29  Pass 1  IDiag  1:
 RMSU=  7.94D-09    CP:  1.00D+00  1.65D+00  1.65D+00  2.02D+00  2.25D+00
                    CP:  1.88D+00  1.29D+00  1.08D+00
 E= -6772.30680378434     Delta-E=       -0.000000000644 Rises=F Damp=F
 DIIS: error= 6.07D-08 at cycle  29 NSaved=  20.
 NSaved=20 IEnMin=20 EnMin= -6772.30680378434     IErMin=20 ErrMin= 6.07D-08
 ErrMax= 6.07D-08  0.00D+00 EMaxC= 1.00D-01 BMatC= 3.16D-11 BMatP= 9.17D-11
 IDIUse=1 WtCom= 1.00D+00 WtEn= 0.00D+00
 Coeff-Com:  0.172D-06 0.631D-06 0.285D-05 0.930D-05-0.129D-04-0.404D-04
 Coeff-Com: -0.167D-03-0.565D-04 0.118D-03-0.409D-04-0.424D-02-0.353D-02
 Coeff-Com:  0.180D-01 0.435D-01 0.424D-01-0.110D+00-0.181D+00 0.373D-01
 Coeff-Com:  0.536D+00 0.622D+00
 Coeff:      0.172D-06 0.631D-06 0.285D-05 0.930D-05-0.129D-04-0.404D-04
 Coeff:     -0.167D-03-0.565D-04 0.118D-03-0.409D-04-0.424D-02-0.353D-02
 Coeff:      0.180D-01 0.435D-01 0.424D-01-0.110D+00-0.181D+00 0.373D-01
 Coeff:      0.536D+00 0.622D+00
 Gap=     0.155 Goal=   None    Shift=    0.000
 Gap=     0.161 Goal=   None    Shift=    0.000
 RMSDP=6.99D-09 MaxDP=1.01D-06 DE=-6.44D-10 OVMax= 2.49D-06

 Cycle  30  Pass 1  IDiag  1:
 RMSU=  4.40D-09    CP:  1.00D+00  1.65D+00  1.66D+00  2.03D+00  2.27D+00
                    CP:  1.95D+00  1.38D+00  1.20D+00  9.48D-01
 E= -6772.30680378402     Delta-E=        0.000000000324 Rises=F Damp=F
 DIIS: error= 2.03D-08 at cycle  30 NSaved=  20.
 NSaved=20 IEnMin=19 EnMin= -6772.30680378434     IErMin=20 ErrMin= 2.03D-08
 ErrMax= 2.03D-08  0.00D+00 EMaxC= 1.00D-01 BMatC= 4.58D-12 BMatP= 3.16D-11
 IDIUse=1 WtCom= 1.00D+00 WtEn= 0.00D+00
 Coeff-Com:  0.847D-06 0.140D-05 0.359D-05-0.158D-04-0.200D-04-0.297D-04
 Coeff-Com: -0.184D-04-0.210D-03-0.702D-03-0.139D-02 0.418D-03 0.814D-02
 Coeff-Com:  0.139D-01 0.119D-01-0.323D-01-0.566D-01-0.306D-01 0.939D-01
 Coeff-Com:  0.265D+00 0.729D+00
 Coeff:      0.847D-06 0.140D-05 0.359D-05-0.158D-04-0.200D-04-0.297D-04
 Coeff:     -0.184D-04-0.210D-03-0.702D-03-0.139D-02 0.418D-03 0.814D-02
 Coeff:      0.139D-01 0.119D-01-0.323D-01-0.566D-01-0.306D-01 0.939D-01
 Coeff:      0.265D+00 0.729D+00
 Gap=     0.155 Goal=   None    Shift=    0.000
 Gap=     0.161 Goal=   None    Shift=    0.000
 RMSDP=2.38D-09 MaxDP=4.75D-07 DE= 3.24D-10 OVMax= 8.43D-07

 SCF Done:  E(UPBEh1PBE) =  -6772.30680378     A.U. after   30 cycles
            NFock= 30  Conv=0.24D-08     -V/T= 2.0013
 <Sx>= 0.0000 <Sy>= 0.0000 <Sz>= 2.5000 <S**2>=13.6419 S= 3.2272
 <L.S>= 0.000000000000E+00
 KE= 6.763582838547D+03 PE=-3.362003236476D+04 EE= 1.130095190327D+04
 Annihilation of the first spin contaminant:
 S**2 before annihilation    13.6419,   after    21.6490
 Leave Link  502 at Sun Sep  7 23:39:53 2025, MaxMem=  3221225472 cpu:           20595.3 elap:            2578.8
 (Enter /mnt/research/peralta/software/gaussian/g16B.03//g16/l601.exe)
 Copying SCF densities to generalized density rwf, IOpCl= 1 IROHF=0.

 **********************************************************************

            Population analysis using the SCF Density.

 **********************************************************************

 Alpha  occ. eigenvalues -- -256.44861-256.44192-256.43913-101.61317-101.60901
 Alpha  occ. eigenvalues -- -101.60777 -30.26152 -30.25140 -30.15865 -26.08808
 Alpha  occ. eigenvalues --  -26.08685 -26.08645 -26.07848 -26.07712 -26.07580
 Alpha  occ. eigenvalues --  -26.00072 -26.00036 -25.99971 -19.20440 -19.20429
 Alpha  occ. eigenvalues --  -19.20413 -19.20362 -19.19969 -19.19669 -19.18308
 Alpha  occ. eigenvalues --  -14.44098 -14.43899 -14.43831 -14.43620 -10.34374
 Alpha  occ. eigenvalues --  -10.34346 -10.30273 -10.30084 -10.27240 -10.27204
 Alpha  occ. eigenvalues --  -10.26902 -10.26536 -10.26368 -10.26100 -10.25751
 Alpha  occ. eigenvalues --  -10.25378 -10.24841 -10.24790 -10.24714 -10.24302
 Alpha  occ. eigenvalues --  -10.24152 -10.23982 -10.22559 -10.22222 -10.18577
 Alpha  occ. eigenvalues --  -10.18570  -9.43563  -9.43107  -9.43096  -7.16510
 Alpha  occ. eigenvalues --   -7.16227  -7.16184  -7.16064  -7.15936  -7.15787
 Alpha  occ. eigenvalues --   -7.15728  -7.15702  -7.15685  -3.70149  -3.69084
 Alpha  occ. eigenvalues --   -3.46221  -2.46349  -2.46110  -2.46048  -2.45345
 Alpha  occ. eigenvalues --   -2.45095  -2.44924  -2.20678  -2.20647  -2.20611
 Alpha  occ. eigenvalues --   -1.09463  -1.09111  -1.01784  -1.01214  -1.00406
 Alpha  occ. eigenvalues --   -1.00114  -1.00018  -0.99751  -0.97563  -0.97154
 Alpha  occ. eigenvalues --   -0.92084  -0.85846  -0.85777  -0.83720  -0.83639
 Alpha  occ. eigenvalues --   -0.78688  -0.78555  -0.77794  -0.77427  -0.76903
 Alpha  occ. eigenvalues --   -0.76790  -0.74685  -0.74380  -0.73201  -0.70181
 Alpha  occ. eigenvalues --   -0.70156  -0.68987  -0.68899  -0.66040  -0.65676
 Alpha  occ. eigenvalues --   -0.63002  -0.62880  -0.58612  -0.58342  -0.57766
 Alpha  occ. eigenvalues --   -0.56610  -0.54571  -0.54407  -0.53699  -0.53589
 Alpha  occ. eigenvalues --   -0.53002  -0.52775  -0.52454  -0.51826  -0.51756
 Alpha  occ. eigenvalues --   -0.50851  -0.50395  -0.50176  -0.49644  -0.49200
 Alpha  occ. eigenvalues --   -0.48825  -0.48626  -0.48152  -0.47830  -0.47500
 Alpha  occ. eigenvalues --   -0.47306  -0.46751  -0.46586  -0.46316  -0.45968
 Alpha  occ. eigenvalues --   -0.45553  -0.45522  -0.45230  -0.45122  -0.44931
 Alpha  occ. eigenvalues --   -0.44538  -0.44430  -0.44210  -0.43856  -0.43674
 Alpha  occ. eigenvalues --   -0.43477  -0.42925  -0.42577  -0.42354  -0.42203
 Alpha  occ. eigenvalues --   -0.41879  -0.40980  -0.40664  -0.40301  -0.40225
 Alpha  occ. eigenvalues --   -0.39777  -0.39594  -0.39203  -0.38716  -0.38657
 Alpha  occ. eigenvalues --   -0.38391  -0.35996  -0.34711  -0.33640  -0.32991
 Alpha  occ. eigenvalues --   -0.32721  -0.32422  -0.32144  -0.31662  -0.31037
 Alpha  occ. eigenvalues --   -0.30624  -0.30522  -0.29752  -0.29381  -0.28876
 Alpha  occ. eigenvalues --   -0.28718  -0.28488  -0.28218  -0.28173  -0.27403
 Alpha  occ. eigenvalues --   -0.26763  -0.26159  -0.25871  -0.25740  -0.25546
 Alpha  occ. eigenvalues --   -0.25230  -0.25062  -0.24931  -0.24782  -0.24458
 Alpha  occ. eigenvalues --   -0.23033
 Alpha virt. eigenvalues --   -0.07503  -0.06672  -0.06389  -0.04699  -0.03724
 Alpha virt. eigenvalues --   -0.02741  -0.02542  -0.02318  -0.01910   0.00846
 Alpha virt. eigenvalues --    0.01191   0.02789   0.03881   0.04259   0.08954
 Alpha virt. eigenvalues --    0.10070   0.10705   0.10918   0.11544   0.12110
 Alpha virt. eigenvalues --    0.12290   0.12448   0.12926   0.13399   0.13602
 Alpha virt. eigenvalues --    0.14253   0.14534   0.14932   0.15202   0.15791
 Alpha virt. eigenvalues --    0.15868   0.16319   0.16345   0.16506   0.16867
 Alpha virt. eigenvalues --    0.17402   0.17665   0.18275   0.18926   0.19254
 Alpha virt. eigenvalues --    0.19830   0.20024   0.20239   0.20350   0.20667
 Alpha virt. eigenvalues --    0.20830   0.20966   0.21099   0.21327   0.21736
 Alpha virt. eigenvalues --    0.22181   0.22329   0.22490   0.22814   0.22932
 Alpha virt. eigenvalues --    0.23167   0.23549   0.23889   0.24010   0.24240
 Alpha virt. eigenvalues --    0.24352   0.25038   0.25241   0.25657   0.26117
 Alpha virt. eigenvalues --    0.26283   0.26706   0.26776   0.27287   0.27559
 Alpha virt. eigenvalues --    0.28113   0.28804   0.28953   0.29204   0.29839
 Alpha virt. eigenvalues --    0.30675   0.31081   0.31511   0.31642   0.31881
 Alpha virt. eigenvalues --    0.32175   0.32274   0.32764   0.33200   0.34183
 Alpha virt. eigenvalues --    0.34432   0.34783   0.35747   0.36144   0.36296
 Alpha virt. eigenvalues --    0.36847   0.37256   0.37518   0.38147   0.38596
 Alpha virt. eigenvalues --    0.39603   0.41023   0.41329   0.42362   0.43295
 Alpha virt. eigenvalues --    0.43611   0.44545   0.45294   0.45585   0.45969
 Alpha virt. eigenvalues --    0.47474   0.47874   0.48615   0.48936   0.49834
 Alpha virt. eigenvalues --    0.50343   0.50882   0.51405   0.52044   0.52240
 Alpha virt. eigenvalues --    0.52928   0.53163   0.53969   0.54111   0.54512
 Alpha virt. eigenvalues --    0.54966   0.55182   0.55833   0.56127   0.56727
 Alpha virt. eigenvalues --    0.57010   0.57148   0.57785   0.58085   0.58532
 Alpha virt. eigenvalues --    0.58771   0.59453   0.60107   0.60415   0.60950
 Alpha virt. eigenvalues --    0.61243   0.61356   0.61474   0.61872   0.62210
 Alpha virt. eigenvalues --    0.62401   0.63018   0.63216   0.63336   0.63533
 Alpha virt. eigenvalues --    0.64317   0.64514   0.64997   0.65655   0.65994
 Alpha virt. eigenvalues --    0.66689   0.66921   0.67141   0.67626   0.68367
 Alpha virt. eigenvalues --    0.68835   0.69800   0.70577   0.70814   0.71477
 Alpha virt. eigenvalues --    0.72222   0.73093   0.73291   0.74213   0.74406
 Alpha virt. eigenvalues --    0.75591   0.75838   0.76270   0.77314   0.77643
 Alpha virt. eigenvalues --    0.78162   0.79420   0.80479   0.81157   0.82031
 Alpha virt. eigenvalues --    0.82367   0.83402   0.83880   0.84356   0.84965
 Alpha virt. eigenvalues --    0.85100   0.85569   0.86718   0.87372   0.87679
 Alpha virt. eigenvalues --    0.88171   0.88461   0.89290   0.89515   0.89808
 Alpha virt. eigenvalues --    0.90390   0.90741   0.91053   0.91248   0.91266
 Alpha virt. eigenvalues --    0.92023   0.92313   0.92602   0.92684   0.93730
 Alpha virt. eigenvalues --    0.93997   0.94372   0.94656   0.95107   0.95386
 Alpha virt. eigenvalues --    0.95794   0.95975   0.96404   0.97111   0.97268
 Alpha virt. eigenvalues --    0.97731   0.98107   0.98221   0.98634   0.98931
 Alpha virt. eigenvalues --    0.99845   1.00135   1.00605   1.00766   1.00902
 Alpha virt. eigenvalues --    1.01667   1.01874   1.02207   1.02732   1.02823
 Alpha virt. eigenvalues --    1.03341   1.03890   1.04252   1.04688   1.04922
 Alpha virt. eigenvalues --    1.05265   1.05619   1.05687   1.06647   1.07045
 Alpha virt. eigenvalues --    1.07420   1.08277   1.08835   1.08919   1.09337
 Alpha virt. eigenvalues --    1.09591   1.09952   1.10949   1.11601   1.11787
 Alpha virt. eigenvalues --    1.13325   1.13517   1.13755   1.14407   1.14794
 Alpha virt. eigenvalues --    1.15819   1.16633   1.17219   1.17514   1.18036
 Alpha virt. eigenvalues --    1.18426   1.19022   1.19532   1.20540   1.20760
 Alpha virt. eigenvalues --    1.21331   1.22306   1.22774   1.23182   1.23402
 Alpha virt. eigenvalues --    1.23715   1.24098   1.25067   1.25963   1.26539
 Alpha virt. eigenvalues --    1.27053   1.28637   1.28908   1.30134   1.30725
 Alpha virt. eigenvalues --    1.31353   1.31818   1.31921   1.32670   1.33141
 Alpha virt. eigenvalues --    1.33757   1.34183   1.34781   1.35478   1.36136
 Alpha virt. eigenvalues --    1.37028   1.37235   1.38021   1.38404   1.38889
 Alpha virt. eigenvalues --    1.39422   1.39523   1.40135   1.40582   1.41619
 Alpha virt. eigenvalues --    1.42802   1.43163   1.43473   1.44331   1.45115
 Alpha virt. eigenvalues --    1.45309   1.45698   1.46758   1.48166   1.48765
 Alpha virt. eigenvalues --    1.49696   1.49970   1.51932   1.52362   1.53256
 Alpha virt. eigenvalues --    1.53749   1.54175   1.55255   1.55785   1.56455
 Alpha virt. eigenvalues --    1.57351   1.58236   1.58452   1.59094   1.59904
 Alpha virt. eigenvalues --    1.60455   1.61069   1.61177   1.61344   1.62702
 Alpha virt. eigenvalues --    1.63464   1.64395   1.64717   1.67051   1.67952
 Alpha virt. eigenvalues --    1.68060   1.68762   1.69496   1.70145   1.71214
 Alpha virt. eigenvalues --    1.71714   1.72440   1.73006   1.74122   1.75099
 Alpha virt. eigenvalues --    1.75687   1.76072   1.76519   1.77221   1.78307
 Alpha virt. eigenvalues --    1.78826   1.79659   1.80138   1.81085   1.81673
 Alpha virt. eigenvalues --    1.82666   1.83278   1.83702   1.84639   1.85735
 Alpha virt. eigenvalues --    1.86488   1.86965   1.88398   1.88498   1.89346
 Alpha virt. eigenvalues --    1.89662   1.89990   1.90694   1.91700   1.91954
 Alpha virt. eigenvalues --    1.92253   1.93082   1.93855   1.94661   1.95621
 Alpha virt. eigenvalues --    1.95871   1.96537   1.96956   1.97146   1.97986
 Alpha virt. eigenvalues --    1.98123   1.98566   1.98882   1.99186   1.99610
 Alpha virt. eigenvalues --    1.99795   2.00328   2.00747   2.00909   2.01678
 Alpha virt. eigenvalues --    2.01967   2.02502   2.03044   2.03622   2.04033
 Alpha virt. eigenvalues --    2.04183   2.04655   2.04935   2.05381   2.05737
 Alpha virt. eigenvalues --    2.06085   2.06856   2.07412   2.07764   2.08627
 Alpha virt. eigenvalues --    2.09442   2.09899   2.10782   2.11199   2.11318
 Alpha virt. eigenvalues --    2.11514   2.11994   2.12528   2.12909   2.14092
 Alpha virt. eigenvalues --    2.14384   2.14851   2.15442   2.16282   2.17043
 Alpha virt. eigenvalues --    2.17508   2.18658   2.19320   2.20054   2.20593
 Alpha virt. eigenvalues --    2.21268   2.21507   2.22680   2.23952   2.24326
 Alpha virt. eigenvalues --    2.24854   2.25254   2.25395   2.25667   2.26467
 Alpha virt. eigenvalues --    2.26790   2.26980   2.28474   2.28541   2.28785
 Alpha virt. eigenvalues --    2.29421   2.29929   2.30581   2.31227   2.31881
 Alpha virt. eigenvalues --    2.32005   2.32239   2.33106   2.33273   2.33716
 Alpha virt. eigenvalues --    2.33949   2.34707   2.35514   2.36038   2.36871
 Alpha virt. eigenvalues --    2.37487   2.37841   2.39459   2.39963   2.40292
 Alpha virt. eigenvalues --    2.40569   2.40966   2.41628   2.42120   2.42877
 Alpha virt. eigenvalues --    2.43794   2.44550   2.44768   2.45508   2.47034
 Alpha virt. eigenvalues --    2.48058   2.48384   2.49422   2.49529   2.49976
 Alpha virt. eigenvalues --    2.50194   2.50856   2.51347   2.51786   2.52163
 Alpha virt. eigenvalues --    2.52783   2.53519   2.54315   2.54858   2.55691
 Alpha virt. eigenvalues --    2.58296   2.58699   2.59892   2.60419   2.60538
 Alpha virt. eigenvalues --    2.60969   2.61764   2.63500   2.64113   2.64681
 Alpha virt. eigenvalues --    2.65142   2.66755   2.67353   2.67769   2.68280
 Alpha virt. eigenvalues --    2.68673   2.69246   2.69748   2.71018   2.71380
 Alpha virt. eigenvalues --    2.71698   2.71871   2.72528   2.72990   2.73991
 Alpha virt. eigenvalues --    2.74936   2.75565   2.76427   2.76534   2.77572
 Alpha virt. eigenvalues --    2.77768   2.78616   2.79576   2.80945   2.81564
 Alpha virt. eigenvalues --    2.81694   2.81988   2.82964   2.83621   2.84576
 Alpha virt. eigenvalues --    2.85140   2.85690   2.86094   2.86351   2.86794
 Alpha virt. eigenvalues --    2.87228   2.87622   2.88689   2.89461   2.89814
 Alpha virt. eigenvalues --    2.90363   2.90836   2.91139   2.92154   2.93674
 Alpha virt. eigenvalues --    2.94950   2.95212   2.95823   2.97028   2.97650
 Alpha virt. eigenvalues --    2.98468   2.98876   2.99048   2.99993   3.01215
 Alpha virt. eigenvalues --    3.02178   3.02967   3.03660   3.04325   3.07224
 Alpha virt. eigenvalues --    3.07765   3.09102   3.09601   3.10138   3.10573
 Alpha virt. eigenvalues --    3.11919   3.12618   3.12852   3.13153   3.13966
 Alpha virt. eigenvalues --    3.15152   3.16633   3.17170   3.17994   3.18977
 Alpha virt. eigenvalues --    3.21171   3.21481   3.22087   3.23114   3.23445
 Alpha virt. eigenvalues --    3.24727   3.24847   3.27289   3.30777   3.31313
 Alpha virt. eigenvalues --    3.32953   3.34138   3.34507   3.35356   3.36519
 Alpha virt. eigenvalues --    3.38139   3.50548   3.51374   3.55523   3.55605
 Alpha virt. eigenvalues --    3.60395   3.63312   3.63390   3.63494   3.63905
 Alpha virt. eigenvalues --    3.64236   3.64622   3.66750   3.67012   3.67641
 Alpha virt. eigenvalues --    3.68048   3.68685   3.69909   3.70984   3.73530
 Alpha virt. eigenvalues --    3.73877   3.74033   3.74181   3.75037   3.75417
 Alpha virt. eigenvalues --    3.75737   3.76305   3.76593   3.76819   3.77828
 Alpha virt. eigenvalues --    3.78810   3.79120   3.81942   3.91266   3.91321
 Alpha virt. eigenvalues --    4.24873   4.25105   5.73050   5.73982   5.75859
 Alpha virt. eigenvalues --    5.79457   5.83774   5.85142   5.90747   5.98650
 Alpha virt. eigenvalues --    6.00134   6.01439   6.05605   6.14242   6.17826
 Alpha virt. eigenvalues --    6.21004   6.28746   8.10478   8.15125   8.17150
 Alpha virt. eigenvalues --    8.20626   8.26938   8.28683   8.35003   8.39230
 Alpha virt. eigenvalues --    8.52222  26.23043  26.33688  26.42757  34.02697
 Alpha virt. eigenvalues --   34.07329  34.08854  34.11345  34.14574  34.15685
 Alpha virt. eigenvalues --   34.20819  34.25805  34.33641 147.32909 147.40949
 Alpha virt. eigenvalues --  147.46381 777.34998 777.41837 777.47563
  Beta  occ. eigenvalues -- -256.44928-256.44126-256.43977-101.61182-101.61030
  Beta  occ. eigenvalues -- -101.60612 -30.25357 -30.16485 -30.15649 -26.08052
  Beta  occ. eigenvalues --  -26.07941 -26.07796 -26.00701 -26.00679 -26.00613
  Beta  occ. eigenvalues --  -25.99864 -25.99812 -25.99756 -19.20647 -19.20147
  Beta  occ. eigenvalues --  -19.20122 -19.20119 -19.19687 -19.19133 -19.17993
  Beta  occ. eigenvalues --  -14.44311 -14.43852 -14.43675 -14.43597 -10.34379
  Beta  occ. eigenvalues --  -10.34342 -10.30269 -10.30089 -10.27238 -10.27206
  Beta  occ. eigenvalues --  -10.26884 -10.26526 -10.26368 -10.26101 -10.25755
  Beta  occ. eigenvalues --  -10.25374 -10.24832 -10.24799 -10.24702 -10.24292
  Beta  occ. eigenvalues --  -10.24141 -10.23993 -10.22556 -10.22225 -10.18579
  Beta  occ. eigenvalues --  -10.18540  -9.43427  -9.43225  -9.42943  -7.16262
  Beta  occ. eigenvalues --   -7.16184  -7.16052  -7.16010  -7.15889  -7.15845
  Beta  occ. eigenvalues --   -7.15772  -7.15554  -7.15501  -3.69274  -3.46667
  Beta  occ. eigenvalues --   -3.46037  -2.45520  -2.45286  -2.45112  -2.21170
  Beta  occ. eigenvalues --   -2.21023  -2.20947  -2.20498  -2.20470  -2.20432
  Beta  occ. eigenvalues --   -1.09396  -1.08572  -1.01384  -1.01088  -1.00172
  Beta  occ. eigenvalues --   -0.99949  -0.99491  -0.99275  -0.97387  -0.96993
  Beta  occ. eigenvalues --   -0.91280  -0.85861  -0.85759  -0.83680  -0.83662
  Beta  occ. eigenvalues --   -0.78557  -0.78444  -0.77791  -0.77271  -0.76942
  Beta  occ. eigenvalues --   -0.76749  -0.74154  -0.73683  -0.73150  -0.70258
  Beta  occ. eigenvalues --   -0.70004  -0.68963  -0.68857  -0.65843  -0.65781
  Beta  occ. eigenvalues --   -0.63066  -0.62420  -0.58563  -0.58350  -0.56974
  Beta  occ. eigenvalues --   -0.56087  -0.54551  -0.54357  -0.53732  -0.53446
  Beta  occ. eigenvalues --   -0.52608  -0.52381  -0.52072  -0.51549  -0.51113
  Beta  occ. eigenvalues --   -0.50445  -0.50364  -0.49339  -0.48637  -0.48317
  Beta  occ. eigenvalues --   -0.48177  -0.47914  -0.47641  -0.47437  -0.46934
  Beta  occ. eigenvalues --   -0.46863  -0.46456  -0.46274  -0.45939  -0.45521
  Beta  occ. eigenvalues --   -0.45404  -0.44997  -0.44776  -0.44363  -0.43834
  Beta  occ. eigenvalues --   -0.43619  -0.43313  -0.42880  -0.42357  -0.42220
  Beta  occ. eigenvalues --   -0.42168  -0.41928  -0.41299  -0.40847  -0.40541
  Beta  occ. eigenvalues --   -0.39931  -0.39744  -0.39565  -0.39252  -0.39014
  Beta  occ. eigenvalues --   -0.38223  -0.36020  -0.34841  -0.34297  -0.33265
  Beta  occ. eigenvalues --   -0.32846  -0.32552  -0.32245  -0.31931  -0.31748
  Beta  occ. eigenvalues --   -0.30946  -0.30794  -0.30220  -0.29620  -0.29491
  Beta  occ. eigenvalues --   -0.28960  -0.28713  -0.28477  -0.28285  -0.27811
  Beta  occ. eigenvalues --   -0.27643  -0.27017  -0.26178  -0.25781  -0.25672
  Beta  occ. eigenvalues --   -0.25563  -0.25304  -0.25045  -0.24888  -0.24546
  Beta  occ. eigenvalues --   -0.23688
  Beta virt. eigenvalues --   -0.07585  -0.07401  -0.07235  -0.06742  -0.06290
  Beta virt. eigenvalues --   -0.06089  -0.04279  -0.03939  -0.03307  -0.02532
  Beta virt. eigenvalues --   -0.02369  -0.02294  -0.02032  -0.01613   0.00841
  Beta virt. eigenvalues --    0.01229   0.02835   0.04184   0.04601   0.08982
  Beta virt. eigenvalues --    0.10059   0.10733   0.11094   0.11606   0.12191
  Beta virt. eigenvalues --    0.12295   0.12562   0.12963   0.13439   0.13704
  Beta virt. eigenvalues --    0.14264   0.14624   0.15009   0.15219   0.15773
  Beta virt. eigenvalues --    0.15887   0.16371   0.16445   0.16582   0.16942
  Beta virt. eigenvalues --    0.17475   0.17806   0.18319   0.18923   0.19209
  Beta virt. eigenvalues --    0.19929   0.20088   0.20259   0.20437   0.20644
  Beta virt. eigenvalues --    0.20974   0.21123   0.21294   0.21686   0.21777
  Beta virt. eigenvalues --    0.22251   0.22509   0.22693   0.22920   0.23217
  Beta virt. eigenvalues --    0.23280   0.23617   0.23827   0.24025   0.24329
  Beta virt. eigenvalues --    0.24814   0.25404   0.25481   0.25682   0.26347
  Beta virt. eigenvalues --    0.26494   0.26811   0.26965   0.27714   0.27929
  Beta virt. eigenvalues --    0.28327   0.28957   0.29361   0.29762   0.30258
  Beta virt. eigenvalues --    0.30995   0.31252   0.31552   0.31757   0.32278
  Beta virt. eigenvalues --    0.32447   0.32821   0.33148   0.33802   0.34629
  Beta virt. eigenvalues --    0.34867   0.34943   0.35908   0.36514   0.36784
  Beta virt. eigenvalues --    0.37344   0.37606   0.38029   0.38404   0.39475
  Beta virt. eigenvalues --    0.40486   0.41326   0.41672   0.42842   0.43370
  Beta virt. eigenvalues --    0.44318   0.45208   0.45423   0.46119   0.46336
  Beta virt. eigenvalues --    0.47753   0.48121   0.48854   0.49265   0.49902
  Beta virt. eigenvalues --    0.50553   0.50975   0.51575   0.52237   0.52781
  Beta virt. eigenvalues --    0.53115   0.53272   0.54020   0.54121   0.54607
  Beta virt. eigenvalues --    0.54894   0.55297   0.56056   0.56252   0.56722
  Beta virt. eigenvalues --    0.57186   0.57323   0.57819   0.58427   0.58715
  Beta virt. eigenvalues --    0.58971   0.59614   0.60302   0.60487   0.61105
  Beta virt. eigenvalues --    0.61321   0.61446   0.61567   0.61956   0.62279
  Beta virt. eigenvalues --    0.62503   0.63111   0.63474   0.63522   0.63625
  Beta virt. eigenvalues --    0.64555   0.64729   0.65174   0.65664   0.66160
  Beta virt. eigenvalues --    0.66945   0.67030   0.67214   0.67840   0.68473
  Beta virt. eigenvalues --    0.68957   0.69905   0.70719   0.71014   0.71486
  Beta virt. eigenvalues --    0.72246   0.73022   0.73491   0.74395   0.74554
  Beta virt. eigenvalues --    0.75768   0.76012   0.76450   0.77249   0.78078
  Beta virt. eigenvalues --    0.78241   0.79491   0.80607   0.81331   0.82063
  Beta virt. eigenvalues --    0.82671   0.83463   0.83892   0.84482   0.85114
  Beta virt. eigenvalues --    0.85402   0.85657   0.86837   0.87414   0.87954
  Beta virt. eigenvalues --    0.88189   0.88514   0.89389   0.89466   0.89837
  Beta virt. eigenvalues --    0.90449   0.90889   0.91138   0.91338   0.91493
  Beta virt. eigenvalues --    0.92168   0.92453   0.92615   0.92812   0.93704
  Beta virt. eigenvalues --    0.94096   0.94459   0.94923   0.95063   0.95400
  Beta virt. eigenvalues --    0.95861   0.96262   0.96502   0.97277   0.97315
  Beta virt. eigenvalues --    0.97774   0.98177   0.98512   0.98684   0.99185
  Beta virt. eigenvalues --    0.99912   1.00276   1.00712   1.00895   1.01135
  Beta virt. eigenvalues --    1.01948   1.02034   1.02370   1.02721   1.03056
  Beta virt. eigenvalues --    1.03631   1.04145   1.04425   1.05072   1.05156
  Beta virt. eigenvalues --    1.05288   1.05842   1.05969   1.06861   1.07118
  Beta virt. eigenvalues --    1.07556   1.08732   1.08835   1.08971   1.09563
  Beta virt. eigenvalues --    1.09946   1.10055   1.11351   1.11577   1.11912
  Beta virt. eigenvalues --    1.13557   1.13836   1.14170   1.14858   1.15267
  Beta virt. eigenvalues --    1.16346   1.16723   1.17590   1.17833   1.18104
  Beta virt. eigenvalues --    1.18951   1.19289   1.20329   1.20835   1.21151
  Beta virt. eigenvalues --    1.21871   1.22564   1.23097   1.23307   1.23627
  Beta virt. eigenvalues --    1.24146   1.24554   1.25309   1.26132   1.27038
  Beta virt. eigenvalues --    1.27825   1.28983   1.29535   1.30734   1.31718
  Beta virt. eigenvalues --    1.31914   1.32388   1.32737   1.33119   1.33474
  Beta virt. eigenvalues --    1.33909   1.34730   1.35381   1.36120   1.37340
  Beta virt. eigenvalues --    1.37521   1.38133   1.38612   1.38725   1.39411
  Beta virt. eigenvalues --    1.39612   1.39932   1.41341   1.41569   1.42065
  Beta virt. eigenvalues --    1.43462   1.43894   1.44382   1.45203   1.45591
  Beta virt. eigenvalues --    1.46629   1.46978   1.47976   1.48408   1.49794
  Beta virt. eigenvalues --    1.50230   1.51086   1.52329   1.52466   1.53382
  Beta virt. eigenvalues --    1.54823   1.55475   1.55635   1.55795   1.57601
[...]
 
              Baa    -0.1861    -9.741    -3.476    -3.249  0.8381  0.5382 -0.0888
     7 Cl(35) Bbb    -0.1534    -8.030    -2.865    -2.679  0.2419 -0.2208  0.9449
              Bcc     0.3395    17.771     6.341     5.928 -0.4889  0.8134  0.3152
 
              Baa    -0.3589   -18.783    -6.702    -6.265 -0.6286  0.6588 -0.4133
     8 Cl(35) Bbb     0.1669     8.736     3.117     2.914 -0.1784  0.3952  0.9011
              Bcc     0.1920    10.047     3.585     3.351  0.7570  0.6401 -0.1309
 
              Baa    -0.2424   -12.688    -4.528    -4.232  0.3865  0.3361  0.8589
     9 Cl(35) Bbb    -0.1009    -5.279    -1.884    -1.761  0.7227  0.4682 -0.5084
              Bcc     0.3433    17.967     6.411     5.993 -0.5730  0.8172 -0.0620
 
              Baa    -0.1935    14.005     4.997     4.672  0.1916  0.9339 -0.3018
    10 O(17)  Bbb    -0.1530    11.070     3.950     3.693  0.8510 -0.3112 -0.4230
              Bcc     0.3465   -25.075    -8.947    -8.364  0.4890  0.1758  0.8544
 
              Baa    -0.3703    26.791     9.560     8.937  0.1474  0.4613  0.8749
    11 O(17)  Bbb     0.1494   -10.813    -3.858    -3.607  0.0802  0.8761 -0.4754
              Bcc     0.2208   -15.979    -5.702    -5.330  0.9858 -0.1402 -0.0922
 
              Baa    -0.1829    13.233     4.722     4.414  0.5403  0.7770 -0.3232
    12 O(17)  Bbb    -0.1516    10.967     3.913     3.658  0.7429 -0.6208 -0.2504
              Bcc     0.3344   -24.200    -8.635    -8.072  0.3951  0.1048  0.9126
 
              Baa    -0.2102    15.210     5.427     5.074  0.9702 -0.1660 -0.1767
    13 O(17)  Bbb    -0.1584    11.462     4.090     3.823  0.0741  0.8969 -0.4360
              Bcc     0.3686   -26.672    -9.517    -8.897  0.2308  0.4099  0.8824
 
              Baa    -0.1405    -5.420    -1.934    -1.808  0.4591  0.1266  0.8793
    14 N(14)  Bbb    -0.1307    -5.041    -1.799    -1.682 -0.4405  0.8920  0.1015
              Bcc     0.2712    10.461     3.733     3.490  0.7715  0.4340 -0.4653
 
              Baa    -0.1529    -5.897    -2.104    -1.967  0.8430  0.5237 -0.1230
    15 N(14)  Bbb    -0.1065    -4.108    -1.466    -1.370 -0.4792  0.8350  0.2705
              Bcc     0.2594    10.005     3.570     3.337  0.2443 -0.1691  0.9548
 
              Baa    -0.2460    -9.486    -3.385    -3.164 -0.1592  0.3884  0.9076
    16 N(14)  Bbb     0.1018     3.927     1.401     1.310 -0.5013  0.7602 -0.4132
              Bcc     0.1441     5.558     1.983     1.854  0.8505  0.5208 -0.0737
 
              Baa    -0.2500    -9.642    -3.440    -3.216  0.5814  0.6642 -0.4700
    17 N(14)  Bbb     0.1208     4.658     1.662     1.554  0.1322  0.4928  0.8600
              Bcc     0.1292     4.984     1.778     1.663  0.8028 -0.5622  0.1987
 
              Baa    -0.0585    -7.852    -2.802    -2.619  0.2783  0.1456  0.9494
    18 C(13)  Bbb    -0.0221    -2.960    -1.056    -0.987 -0.1068  0.9870 -0.1201
              Bcc     0.0806    10.813     3.858     3.607  0.9545  0.0680 -0.2902
 
              Baa    -0.0548    -7.356    -2.625    -2.454  0.4204  0.6058  0.6755
    19 C(13)  Bbb     0.0161     2.155     0.769     0.719 -0.3832  0.7933 -0.4730
              Bcc     0.0388     5.200     1.856     1.735  0.8224  0.0600 -0.5657
 
              Baa    -0.0593   -31.628   -11.286   -10.550  0.6474  0.5589  0.5182
    20 H(1)   Bbb     0.0019     1.032     0.368     0.344 -0.4099  0.8285 -0.3815
              Bcc     0.0573    30.596    10.917    10.206 -0.6426  0.0346  0.7654
 
              Baa    -0.0708    -9.506    -3.392    -3.171  0.9043 -0.1140 -0.4114
    21 C(13)  Bbb     0.0220     2.947     1.051     0.983  0.0811  0.9920 -0.0966
              Bcc     0.0489     6.560     2.341     2.188  0.4191  0.0540  0.9063
 
              Baa    -0.0373    -5.010    -1.788    -1.671  0.4840  0.2402  0.8415
    22 C(13)  Bbb    -0.0104    -1.391    -0.496    -0.464 -0.3107  0.9461 -0.0914
              Bcc     0.0477     6.401     2.284     2.135  0.8181  0.2173 -0.5325
 
              Baa    -0.0235   -12.527    -4.470    -4.179  0.7483  0.1712  0.6408
    23 H(1)   Bbb    -0.0144    -7.679    -2.740    -2.561 -0.1935  0.9804 -0.0360
              Bcc     0.0379    20.206     7.210     6.740 -0.6345 -0.0970  0.7668
 
              Baa    -0.0164    -8.756    -3.124    -2.921  0.3640  0.1853  0.9128
    24 H(1)   Bbb    -0.0105    -5.617    -2.004    -1.874 -0.2721  0.9584 -0.0861
              Bcc     0.0269    14.373     5.129     4.794  0.8908  0.2170 -0.3992
 
              Baa    -0.0353    -4.738    -1.691    -1.580 -0.6680 -0.2026  0.7161
    25 C(13)  Bbb     0.0140     1.878     0.670     0.627  0.2606  0.8377  0.4800
              Bcc     0.0213     2.859     1.020     0.954  0.6971 -0.5072  0.5067
 
              Baa    -0.0258   -13.771    -4.914    -4.593  0.8736  0.0540 -0.4837
    26 H(1)   Bbb     0.0122     6.491     2.316     2.165 -0.3067  0.8328 -0.4608
              Bcc     0.0136     7.280     2.598     2.428  0.3779  0.5509  0.7441
 
              Baa    -0.0158    -8.451    -3.016    -2.819 -0.5447 -0.3600  0.7574
    27 H(1)   Bbb     0.0066     3.519     1.256     1.174  0.0501  0.8876  0.4579
              Bcc     0.0092     4.932     1.760     1.645  0.8371 -0.2874  0.4655
 
              Baa    -0.0630    -8.455    -3.017    -2.820 -0.5490  0.7997 -0.2433
    28 C(13)  Bbb    -0.0024    -0.319    -0.114    -0.106  0.0590  0.3274  0.9430
              Bcc     0.0654     8.774     3.131     2.927  0.8338  0.5033 -0.2269
 
              Baa    -0.0401    -5.386    -1.922    -1.797 -0.4260  0.1143  0.8975
    29 C(13)  Bbb     0.0136     1.820     0.649     0.607  0.7402  0.6144  0.2731
              Bcc     0.0266     3.566     1.273     1.190 -0.5203  0.7806 -0.3463
 
              Baa    -0.0397    -5.323    -1.899    -1.775  0.7535  0.2063 -0.6243
    30 C(13)  Bbb    -0.0185    -2.487    -0.887    -0.829 -0.2345  0.9714  0.0381
              Bcc     0.0582     7.809     2.787     2.605  0.6143  0.1177  0.7803
 
              Baa    -0.0582   -31.051   -11.080   -10.358 -0.5225 -0.3330  0.7849
    31 H(1)   Bbb    -0.0026    -1.391    -0.496    -0.464 -0.3456  0.9243  0.1621
              Bcc     0.0608    32.442    11.576    10.822  0.7795  0.1865  0.5980
 
              Baa    -0.0437    -5.864    -2.093    -1.956 -0.0918  0.8622 -0.4982
    32 C(13)  Bbb     0.0124     1.663     0.593     0.555  0.1717  0.5065  0.8449
              Bcc     0.0313     4.201     1.499     1.401  0.9809 -0.0080 -0.1945
 
              Baa    -0.0304   -16.197    -5.779    -5.403  0.1919 -0.6518  0.7337
    33 H(1)   Bbb     0.0083     4.419     1.577     1.474  0.1824  0.7583  0.6259
              Bcc     0.0221    11.778     4.203     3.929  0.9643 -0.0137 -0.2643
 
              Baa    -0.0179    -9.531    -3.401    -3.179 -0.0564  0.9005 -0.4312
    34 H(1)   Bbb     0.0048     2.585     0.922     0.862  0.1698  0.4343  0.8846
              Bcc     0.0130     6.947     2.479     2.317  0.9839 -0.0234 -0.1774
 
              Baa    -0.0155    -2.086    -0.744    -0.696  0.3764  0.5331  0.7577
    35 C(13)  Bbb     0.0014     0.185     0.066     0.062 -0.3939  0.8323 -0.3899
              Bcc     0.0142     1.901     0.678     0.634  0.8385  0.1517 -0.5233
 
              Baa    -0.0103    -5.517    -1.968    -1.840  0.6422  0.5717  0.5106
    36 H(1)   Bbb    -0.0009    -0.475    -0.170    -0.158 -0.3847  0.8165 -0.4305
              Bcc     0.0112     5.992     2.138     1.999 -0.6630  0.0801  0.7443
 
              Baa    -0.0261    -3.505    -1.251    -1.169 -0.6091  0.6979  0.3767
    37 C(13)  Bbb    -0.0233    -3.123    -1.114    -1.042  0.7173  0.2822  0.6371
              Bcc     0.0494     6.629     2.365     2.211 -0.3383 -0.6583  0.6725
 
              Baa    -0.0216   -11.530    -4.114    -3.846  0.6889  0.2257  0.6889
    38 H(1)   Bbb    -0.0188   -10.038    -3.582    -3.348  0.6946 -0.4775 -0.5381
              Bcc     0.0404    21.568     7.696     7.194  0.2075  0.8491 -0.4857
 
              Baa    -0.0131    -6.978    -2.490    -2.328  0.4788  0.4790  0.7358
    39 H(1)   Bbb    -0.0119    -6.372    -2.274    -2.125  0.7657 -0.6378 -0.0830
              Bcc     0.0250    13.350     4.763     4.453 -0.4296 -0.6031  0.6721
 
              Baa    -0.0324    -4.348    -1.551    -1.450  0.7732 -0.5829 -0.2499
    40 C(13)  Bbb    -0.0216    -2.898    -1.034    -0.967  0.6308  0.6662  0.3979
              Bcc     0.0540     7.246     2.585     2.417 -0.0654 -0.4653  0.8827
 
              Baa    -0.0851   -11.418    -4.074    -3.809 -0.5854  0.4142  0.6970
    41 C(13)  Bbb     0.0000     0.007     0.002     0.002  0.0085  0.8628 -0.5055
              Bcc     0.0850    11.412     4.072     3.806  0.8107  0.2900  0.5086
 
              Baa    -0.0346    -4.648    -1.658    -1.550  0.6627  0.7437  0.0875
    42 C(13)  Bbb     0.0147     1.976     0.705     0.659  0.0533 -0.1634  0.9851
              Bcc     0.0199     2.672     0.953     0.891  0.7470 -0.6482 -0.1479
 
              Baa    -0.0142    -7.581    -2.705    -2.529  0.6281  0.7756 -0.0627
    43 H(1)   Bbb     0.0056     3.005     1.072     1.002  0.1182 -0.0154  0.9929
              Bcc     0.0086     4.576     1.633     1.526  0.7691 -0.6310 -0.1014
 
              Baa    -0.0300   -15.990    -5.706    -5.334  0.8307  0.4993  0.2462
    44 H(1)   Bbb     0.0137     7.291     2.602     2.432  0.0788 -0.5432  0.8359
              Bcc     0.0163     8.699     3.104     2.902 -0.5511  0.6750  0.4906
 
              Baa    -0.0293   -15.653    -5.585    -5.221  0.3681  0.8913  0.2650
    45 H(1)   Bbb     0.0107     5.729     2.044     1.911 -0.0178 -0.2782  0.9604
              Bcc     0.0186     9.924     3.541     3.310  0.9296 -0.3582 -0.0865
 
              Baa    -0.0235    -3.154    -1.125    -1.052 -0.1449  0.1211  0.9820
    46 C(13)  Bbb    -0.0225    -3.020    -1.078    -1.008 -0.6339  0.7507 -0.1861
              Bcc     0.0460     6.174     2.203     2.060  0.7597  0.6495  0.0321
 
              Baa    -0.0117    -6.268    -2.237    -2.091  0.3032 -0.2064  0.9303
    47 H(1)   Bbb    -0.0112    -5.995    -2.139    -2.000 -0.5816  0.7333  0.3523
              Bcc     0.0230    12.264     4.376     4.091  0.7549  0.6479 -0.1023
 
              Baa    -0.0215   -11.478    -4.095    -3.829  0.0200 -0.1874  0.9821
    48 H(1)   Bbb    -0.0202   -10.762    -3.840    -3.590  0.8266 -0.5494 -0.1217
              Bcc     0.0417    22.239     7.936     7.418  0.5624  0.8142  0.1439
 
              Baa    -0.0211   -11.272    -4.022    -3.760 -0.3687  0.2566  0.8934
    49 H(1)   Bbb    -0.0177    -9.457    -3.375    -3.155 -0.3718  0.8402 -0.3947
              Bcc     0.0389    20.730     7.397     6.915  0.8520  0.4777  0.2144
 
              Baa    -0.0094    -1.263    -0.451    -0.421  0.1886  0.5078  0.8406
    50 C(13)  Bbb     0.0034     0.463     0.165     0.154 -0.1351  0.8612 -0.4900
              Bcc     0.0060     0.801     0.286     0.267  0.9727  0.0212 -0.2310
 
              Baa    -0.0044    -2.323    -0.829    -0.775  0.3131  0.5131  0.7992
    51 H(1)   Bbb     0.0004     0.237     0.085     0.079 -0.3418  0.8460 -0.4093
              Bcc     0.0039     2.086     0.744     0.696  0.8861  0.1450 -0.4403
 
              Baa    -0.0137    -1.844    -0.658    -0.615 -0.1515  0.2802  0.9479
    52 C(13)  Bbb     0.0041     0.545     0.195     0.182 -0.4289  0.8454 -0.3184
              Bcc     0.0097     1.299     0.464     0.433  0.8906  0.4548  0.0078
 
              Baa    -0.0063    -3.368    -1.202    -1.123 -0.2486  0.1820  0.9514
    53 H(1)   Bbb     0.0025     1.339     0.478     0.447 -0.1908  0.9537 -0.2323
              Bcc     0.0038     2.029     0.724     0.677  0.9496  0.2393  0.2024
 
              Baa    -0.0129    -1.730    -0.617    -0.577  0.8841  0.4640  0.0556
    54 C(13)  Bbb    -0.0077    -1.038    -0.371    -0.346 -0.4492  0.8111  0.3747
              Bcc     0.0206     2.768     0.988     0.923  0.1288 -0.3562  0.9255
 
              Baa    -0.0067    -3.573    -1.275    -1.192  0.9766  0.1870  0.1061
    55 H(1)   Bbb    -0.0055    -2.947    -1.052    -0.983 -0.2149  0.8678  0.4481
              Bcc     0.0122     6.520     2.327     2.175 -0.0083 -0.4604  0.8876
 
              Baa    -0.0159    -2.132    -0.761    -0.711  0.7581  0.4603 -0.4621
    56 C(13)  Bbb    -0.0058    -0.782    -0.279    -0.261 -0.3744  0.8872  0.2696
              Bcc     0.0217     2.913     1.040     0.972  0.5340 -0.0314  0.8449
 
              Baa    -0.0101    -5.405    -1.929    -1.803 -0.6585 -0.3007  0.6899
    57 H(1)   Bbb    -0.0028    -1.496    -0.534    -0.499 -0.2785  0.9490  0.1478
              Bcc     0.0129     6.901     2.463     2.302  0.6991  0.0948  0.7087
 
              Baa    -0.0243    -3.255    -1.161    -1.086  0.8800 -0.0146 -0.4748
    58 C(13)  Bbb    -0.0142    -1.911    -0.682    -0.637 -0.0508  0.9909 -0.1245
              Bcc     0.0385     5.165     1.843     1.723  0.4723  0.1337  0.8712
 
              Baa    -0.0144    -7.684    -2.742    -2.563  0.9117  0.0105 -0.4108
    59 H(1)   Bbb    -0.0063    -3.387    -1.208    -1.130 -0.0016  0.9998  0.0220
              Bcc     0.0207    11.071     3.950     3.693  0.4109 -0.0194  0.9115
 
              Baa    -0.0122    -6.501    -2.320    -2.169  0.7910 -0.1497 -0.5932
    60 H(1)   Bbb    -0.0080    -4.267    -1.522    -1.423  0.0104  0.9728 -0.2316
              Bcc     0.0202    10.768     3.842     3.592  0.6117  0.1770  0.7710
 
              Baa    -0.0132    -7.047    -2.514    -2.351  0.9492  0.2084 -0.2357
    61 H(1)   Bbb    -0.0066    -3.530    -1.259    -1.177 -0.2472  0.9575 -0.1489
              Bcc     0.0198    10.576     3.774     3.528  0.1946  0.1996  0.9604
 
              Baa    -0.0088    -1.177    -0.420    -0.393  0.8835 -0.2743 -0.3798
    62 C(13)  Bbb    -0.0060    -0.799    -0.285    -0.267  0.3216  0.9446  0.0660
              Bcc     0.0147     1.976     0.705     0.659  0.3406 -0.1804  0.9227
 
              Baa    -0.0048    -2.535    -0.905    -0.846  0.9125  0.2632 -0.3131
    63 H(1)   Bbb    -0.0030    -1.615    -0.576    -0.539 -0.1789  0.9452  0.2733
              Bcc     0.0078     4.150     1.481     1.384  0.3678 -0.1934  0.9096
 
              Baa    -0.0241    -3.233    -1.154    -1.078 -0.6430  0.3547  0.6788
    64 C(13)  Bbb    -0.0011    -0.145    -0.052    -0.048 -0.0439  0.8678 -0.4950
              Bcc     0.0252     3.377     1.205     1.127  0.7646  0.3481  0.5424
 
              Baa    -0.0136    -7.260    -2.590    -2.422 -0.3947  0.4232  0.8156
    65 H(1)   Bbb     0.0009     0.477     0.170     0.159 -0.0868  0.8665 -0.4916
              Bcc     0.0127     6.782     2.420     2.262  0.9147  0.2649  0.3053
 
              Baa    -0.0141    -7.525    -2.685    -2.510  0.7713 -0.1717 -0.6128
    66 H(1)   Bbb    -0.0030    -1.608    -0.574    -0.536 -0.0755  0.9314 -0.3560
              Bcc     0.0171     9.133     3.259     3.046  0.6319  0.3208  0.7055
 
              Baa    -0.0133    -7.077    -2.525    -2.361  0.7774 -0.3584 -0.5170
    67 H(1)   Bbb    -0.0041    -2.195    -0.783    -0.732 -0.0681  0.7691 -0.6355
              Bcc     0.0174     9.272     3.309     3.093  0.6254  0.5292  0.5735
 
              Baa    -0.0345   -18.385    -6.560    -6.133 -0.1030  0.1236  0.9870
    68 H(1)   Bbb    -0.0136    -7.254    -2.588    -2.420 -0.0285  0.9915 -0.1272
              Bcc     0.0481    25.639     9.149     8.552  0.9943  0.0412  0.0986
 
              Baa    -0.0294   -15.665    -5.589    -5.225  0.4472  0.1286  0.8851
    69 H(1)   Bbb    -0.0119    -6.343    -2.263    -2.116  0.0537  0.9840 -0.1701
              Bcc     0.0412    22.008     7.853     7.341  0.8928 -0.1236 -0.4331
 
              Baa    -0.0467   -24.904    -8.886    -8.307 -0.4686  0.8817  0.0543
    70 H(1)   Bbb     0.0002     0.113     0.040     0.038  0.0907 -0.0131  0.9958
              Bcc     0.0465    24.790     8.846     8.269  0.8787  0.4716 -0.0739
 
              Baa    -0.0290   -15.475    -5.522    -5.162  0.7620 -0.6141  0.2056
    71 H(1)   Bbb    -0.0085    -4.511    -1.610    -1.505  0.1388  0.4650  0.8744
              Bcc     0.0375    19.987     7.132     6.667  0.6326  0.6377 -0.4396
 

 ---------------------------------------------------------------------------------

 No NMR shielding tensors so no spin-rotation constants.
 Leave Link  601 at Sun Sep  7 23:39:54 2025, MaxMem=  3221225472 cpu:               5.3 elap:               0.8
 (Enter /mnt/research/peralta/software/gaussian/g16B.03//g16/l9999.exe)

 Test job not archived.
 1\1\GINC-SKL-058\SP\UPBEh1PBE\Gen\C22H32Cl3Fe3N4O7(6)\K0102371\07-Sep-
 2025\0\\#p nosymm test PBEh1PBE/Gen geom=CheckPoint guess=read scf(con
 ver=8) iop(4/151=1)\\SCF calculation flipping: 2 atoms Fe3 PBEh1PBE\\0
 ,6\Fe,0,-0.439941,0.175786,10.830498\Fe,0,2.377917,2.399541,10.118445\
 Fe,0,-0.538104,3.149791,10.365879\O,0,-1.572873,1.774281,11.349062\O,0
 ,1.08689,3.818712,9.430202\O,0,0.793712,1.502268,10.43966\Cl,0,0.50073
 5,-1.841989,10.28472\Cl,0,4.061527,0.979902,10.875756\Cl,0,-2.045629,4
 .839339,10.360254\O,0,-1.452491,0.232414,9.035491\O,0,2.440929,3.45085
 2,11.884644\O,0,-1.284914,2.433222,8.599011\O,0,0.24124,3.808827,12.13
 259\N,0,-2.253102,-0.827907,11.766118\N,0,0.10104,-0.092492,12.908186\
 N,0,2.703519,1.654227,8.116747\N,0,3.819427,3.867722,9.183296\C,0,-2.9
 55108,1.513169,11.468528\C,0,1.922604,0.721133,7.531337\H,0,1.128478,0
 .437129,7.968628\C,0,-1.687659,1.271967,8.338006\C,0,-3.087223,0.25939
 2,12.319401\H,0,-2.802896,0.456458,13.246988\H,0,-4.034362,-0.027837,1
 2.342157\C,0,4.627274,3.116901,8.20907\H,0,5.378447,2.674569,8.678303\
 H,0,5.009005,3.745668,7.546489\C,0,1.677133,5.095469,9.271916\C,0,3.81
 0475,2.083276,7.497515\C,0,1.103427,0.564236,13.520041\H,0,1.634913,1.
 166721,13.013083\C,0,2.971267,4.879776,8.487491\H,0,2.75916,4.5659,7.5
 72834\H,0,3.46413,5.735248,8.414351\C,0,2.257565,0.169685,6.304436\H,0
 ,1.699119,-0.486592,5.904513\C,0,-1.710298,-1.68609,12.829235\H,0,-1.3
 3149,-2.507959,12.42783\H,0,-2.440538,-1.952889,13.442158\C,0,-0.63729
 ,-0.968131,13.609544\C,0,1.423149,3.900651,12.509159\C,0,4.706428,4.52
 9322,10.170509\H,0,5.356019,5.092509,9.700136\H,0,5.181144,3.848175,10
 .691167\H,0,4.168271,5.084513,10.772652\C,0,-3.031206,-1.653331,10.818
 963\H,0,-3.741193,-2.124426,11.303107\H,0,-2.438543,-2.306316,10.39146
 9\H,0,-3.429888,-1.07663,10.134224\C,0,3.411853,0.584586,5.669696\H,0,
 3.66315,0.203928,4.836354\C,0,4.193193,1.551236,6.25223\H,0,4.982098,1
 .857108,5.820293\C,0,-0.385618,-1.202707,14.952564\H,0,-0.912282,-1.82
 9714,15.434215\C,0,1.384555,0.391257,14.859415\H,0,2.079591,0.88841,15
 .274448\C,0,-2.522715,1.082034,7.095939\H,0,-2.709611,1.954824,6.69134
 4\H,0,-3.366887,0.644654,7.333589\H,0,-2.034096,0.523252,6.456087\C,0,
 0.63813,-0.518171,15.58971\H,0,0.823765,-0.670041,16.508924\C,0,1.6612
 99,4.597152,13.806167\H,0,2.625524,4.686374,13.95682\H,0,1.263686,4.07
 5977,14.534654\H,0,1.251161,5.486795,13.779337\H,0,-3.3929,1.348043,10
 .485171\H,0,-3.455444,2.350544,11.952664\H,0,1.895308,5.532581,10.2451
 86\H,0,1.007782,5.753813,8.720125\\Version=ES64L-G16RevB.01\HF=-6772.3
 068038\S2=13.641888\S2-1=0.\S2A=21.649012\RMSD=2.382e-09\Dipole=0.5440
 306,-0.4116468,0.0573286\Quadrupole=-3.7124586,-25.9153699,29.6278285,
 38.2399563,-9.3124137,-17.8780318\PG=C01 [X(C22H32Cl3Fe3N4O7)]\\@


 BE NOT THE FIRST BY WHOM THE NEW ARE TRIED,
 NOR YET THE THE LAST TO LAY THE OLD ASIDE.

                          -- ALEXANDER POPE
 Job cpu time:       0 days  5 hours 44 minutes 23.8 seconds.
 Elapsed time:       0 days  0 hours 43 minutes 10.9 seconds.
 File lengths (MBytes):  RWF=    896 Int=      0 D2E=      0 Chk=     52 Scr=     32
 Normal termination of Gaussian 16 at Sun Sep  7 23:39:54 2025.
Finished at Sun Sep 7 11:39:54 PM EDT 2025
