GAUSS_SCRDIR is /mnt/scratch/k0102371/60790907
 Entering Gaussian System, Link 0=g16
 AtFile(1): basis.bas
            Fe 0
            6-311+g**
            ****
            C H O N Cl 0
            6-31g**
            ****
 Initial command:
 /mnt/research/peralta/software/gaussian/g16B.03//g16/l1.exe "/mnt/scratch/k0102371/60790907/Gau-1569073.inp" -scrdir="/mnt/scratch/k0102371/60790907/"
 Default linda workers: amr-195,amr-197,amr-208,amr-210,amr-217,amr-221
 Entering Link 1 = /mnt/research/peralta/software/gaussian/g16B.03//g16/l1.exe PID=   1569075.
  
 Copyright (c) 1988-2017, Gaussian, Inc.  All Rights Reserved.
  
 This is part of the Gaussian(R) 16 program.  It is based on
 the Gaussian(R) 09 system (copyright 2009, Gaussian, Inc.),
 the Gaussian(R) 03 system (copyright 2003, Gaussian, Inc.),
 the Gaussian(R) 98 system (copyright 1998, Gaussian, Inc.),
 the Gaussian(R) 94 system (copyright 1995, Gaussian, Inc.),
 the Gaussian 92(TM) system (copyright 1992, Gaussian, Inc.),
 the Gaussian 90(TM) system (copyright 1990, Gaussian, Inc.),
 the Gaussian 88(TM) system (copyright 1988, Gaussian, Inc.),
 the Gaussian 86(TM) system (copyright 1986, Carnegie Mellon
 University), and the Gaussian 82(TM) system (copyright 1983,
 Carnegie Mellon University). Gaussian is a federally registered
 trademark of Gaussian, Inc.
  
 This software contains proprietary and confidential information,
 including trade secrets, belonging to Gaussian, Inc.
  
 This software is provided under written license and may be
 used, copied, transmitted, or stored only in accord with that
 written license.
  
 The following legend is applicable only to US Government
 contracts under FAR:
  
                    RESTRICTED RIGHTS LEGEND
  
 Use, reproduction and disclosure by the US Government is
 subject to restrictions as set forth in subparagraphs (a)
 and (c) of the Commercial Computer Software - Restricted
 Rights clause in FAR 52.227-19.
  
 Gaussian, Inc.
 340 Quinnipiac St., Bldg. 40, Wallingford CT 06492
  
  
 ---------------------------------------------------------------
 Warning -- This program may not be used in any manner that
 competes with the business of Gaussian, Inc. or will provide
 assistance to any competitor of Gaussian, Inc.  The licensee
 of this program is prohibited from giving any competitor of
 Gaussian, Inc. access to this program.  By using this program,
 the user acknowledges that Gaussian, Inc. is engaged in the
 business of creating and licensing software in the field of
 computational chemistry and represents and warrants to the
 licensee that it is not a competitor of Gaussian, Inc. and that
 it will not use this program in any manner prohibited above.
 ---------------------------------------------------------------
  

 Cite this work as:
 Gaussian 16, Revision B.01,
 M. J. Frisch, G. W. Trucks, H. B. Schlegel, G. E. Scuseria, 
 M. A. Robb, J. R. Cheeseman, G. Scalmani, V. Barone, 
 G. A. Petersson, H. Nakatsuji, X. Li, M. Caricato, A. V. Marenich, 
 J. Bloino, B. G. Janesko, R. Gomperts, B. Mennucci, H. P. Hratchian, 
 J. V. Ortiz, A. F. Izmaylov, J. L. Sonnenberg, D. Williams-Young, 
 F. Ding, F. Lipparini, F. Egidi, J. Goings, B. Peng, A. Petrone, 
 T. Henderson, D. Ranasinghe, V. G. Zakrzewski, J. Gao, N. Rega, 
 G. Zheng, W. Liang, M. Hada, M. Ehara, K. Toyota, R. Fukuda, 
 J. Hasegawa, M. Ishida, T. Nakajima, Y. Honda, O. Kitao, H. Nakai, 
 T. Vreven, K. Throssell, J. A. Montgomery, Jr., J. E. Peralta, 
 F. Ogliaro, M. J. Bearpark, J. J. Heyd, E. N. Brothers, K. N. Kudin, 
 V. N. Staroverov, T. A. Keith, R. Kobayashi, J. Normand, 
 K. Raghavachari, A. P. Rendell, J. C. Burant, S. S. Iyengar, 
 J. Tomasi, M. Cossi, J. M. Millam, M. Klene, C. Adamo, R. Cammi, 
 J. W. Ochterski, R. L. Martin, K. Morokuma, O. Farkas, 
 J. B. Foresman, and D. J. Fox, Gaussian, Inc., Wallingford CT, 2016.
 
 ******************************************
 Gaussian 16:  ES64L-G16RevB.01 20-Dec-2017
                 7-Sep-2025 
 ******************************************
 %nprocshared=8
 Will use up to    8 processors via shared memory.
 %LindaWorkers=amr-195,amr-197,amr-208,amr-210,amr-217,amr-221
 %subst l401 /mnt/research/peralta/software/gaussian/g16B.03/g16-local/
 %subst l502 /mnt/research/peralta/software/gaussian/g16B.03/g16-local/
 %chk=Fe3-PBEh1PBE.4.chk
 %mem=24Gb
 SetLPE:    new flags="-opt 'Tsnet.Node.lindarsharg: ssh'  -nodelist 'amr-195.i amr-197.i amr-208.i amr-210.i amr-217.i amr-221.i' -env GAUSS_MDEF=3221225472 -env GAUSS_EXEDIR="/mnt/research/peralta/software/gaussian/g16B.03//g16/bsd:/mnt/research/peralta/software/gaussian/g16B.03//g16""
 Will use up to    6 processors via Linda.
 ----------------------------------------------------------------------
 #p nosymm test PBEh1PBE/Gen geom=CheckPoint guess=read scf(conver=8) i
 op(4/151=1)
 ----------------------------------------------------------------------
 1/29=2,38=1,172=1/1;
 2/12=2,15=1,40=1/2;
 3/5=7,11=2,14=-4,25=1,30=1,74=-26,116=-2/1,2,3;
 4/5=1,151=1/1;
 5/5=2,6=8,38=6/2;
 6/7=2,8=2,9=2,10=2,28=1/1;
 99/5=1,9=1/99;
 Leave Link    1 at Sun Sep  7 22:56:41 2025, MaxMem=  3221225472 cpu:               2.0 elap:               1.0
 (Enter /mnt/research/peralta/software/gaussian/g16B.03//g16/l101.exe)
 ----------------------------------------------
 SCF calculation flipping: 3 atoms Fe3 PBEh1PBE
 ----------------------------------------------
 Structure from the checkpoint file:  "Fe3-PBEh1PBE.4.chk"
 Charge =  0 Multiplicity = 6
 Z-Matrix found in chk file.
 Fe,0,-0.439941,0.175786,10.830498
 Fe,0,2.377917,2.399541,10.118445
 Fe,0,-0.538104,3.149791,10.365879
 O,0,-1.572873,1.774281,11.349062
 O,0,1.08689,3.818712,9.430202
 O,0,0.793712,1.502268,10.43966
 Cl,0,0.500735,-1.841989,10.28472
 Cl,0,4.061527,0.979902,10.875756
 Cl,0,-2.045629,4.839339,10.360254
 O,0,-1.452491,0.232414,9.035491
 O,0,2.440929,3.450852,11.884644
 O,0,-1.284914,2.433222,8.599011
 O,0,0.24124,3.808827,12.13259
 N,0,-2.253102,-0.827907,11.766118
 N,0,0.10104,-0.092492,12.908186
 N,0,2.703519,1.654227,8.116747
 N,0,3.819427,3.867722,9.183296
 C,0,-2.955108,1.513169,11.468528
 C,0,1.922604,0.721133,7.531337
 H,0,1.128478,0.437129,7.968628
 C,0,-1.687659,1.271967,8.338006
 C,0,-3.087223,0.259392,12.319401
 H,0,-2.802896,0.456458,13.246988
 H,0,-4.034362,-0.027837,12.342157
 C,0,4.627274,3.116901,8.20907
 H,0,5.378447,2.674569,8.678303
 H,0,5.009005,3.745668,7.546489
 C,0,1.677133,5.095469,9.271916
 C,0,3.810475,2.083276,7.497515
 C,0,1.103427,0.564236,13.520041
 H,0,1.634913,1.166721,13.013083
 C,0,2.971267,4.879776,8.487491
 H,0,2.75916,4.5659,7.572834
 H,0,3.46413,5.735248,8.414351
 C,0,2.257565,0.169685,6.304436
 H,0,1.699119,-0.486592,5.904513
 C,0,-1.710298,-1.68609,12.829235
 H,0,-1.33149,-2.507959,12.42783
 H,0,-2.440538,-1.952889,13.442158
 C,0,-0.63729,-0.968131,13.609544
 C,0,1.423149,3.900651,12.509159
 C,0,4.706428,4.529322,10.170509
 H,0,5.356019,5.092509,9.700136
 H,0,5.181144,3.848175,10.691167
 H,0,4.168271,5.084513,10.772652
 C,0,-3.031206,-1.653331,10.818963
 H,0,-3.741193,-2.124426,11.303107
 H,0,-2.438543,-2.306316,10.391469
 H,0,-3.429888,-1.07663,10.134224
 C,0,3.411853,0.584586,5.669696
 H,0,3.66315,0.203928,4.836354
 C,0,4.193193,1.551236,6.25223
 H,0,4.982098,1.857108,5.820293
 C,0,-0.385618,-1.202707,14.952564
 H,0,-0.912282,-1.829714,15.434215
 C,0,1.384555,0.391257,14.859415
 H,0,2.079591,0.88841,15.274448
 C,0,-2.522715,1.082034,7.095939
 H,0,-2.709611,1.954824,6.691344
 H,0,-3.366887,0.644654,7.333589
 H,0,-2.034096,0.523252,6.456087
 C,0,0.63813,-0.518171,15.58971
 H,0,0.823765,-0.670041,16.508924
 C,0,1.661299,4.597152,13.806167
 H,0,2.625524,4.686374,13.95682
 H,0,1.263686,4.075977,14.534654
 H,0,1.251161,5.486795,13.779337
 H,0,-3.3929,1.348043,10.485171
 H,0,-3.455444,2.350544,11.952664
 H,0,1.895308,5.532581,10.245186
 H,0,1.007782,5.753813,8.720125
 Recover connectivity data from disk.
 ITRead=  0  0  0  0  0  0  0  0  0  0  0  0  0  0  0  0  0  0  0  0
 ITRead=  0  0  0  0  0  0  0  0  0  0  0  0  0  0  0  0  0  0  0  0
 ITRead=  0  0  0  0  0  0  0  0  0  0  0  0  0  0  0  0  0  0  0  0
 ITRead=  0  0  0  0  0  0  0  0  0  0  0
 MicOpt= -1 -1 -1 -1 -1 -1 -1 -1 -1 -1 -1 -1 -1 -1 -1 -1 -1 -1 -1 -1
 MicOpt= -1 -1 -1 -1 -1 -1 -1 -1 -1 -1 -1 -1 -1 -1 -1 -1 -1 -1 -1 -1
 MicOpt= -1 -1 -1 -1 -1 -1 -1 -1 -1 -1 -1 -1 -1 -1 -1 -1 -1 -1 -1 -1
 MicOpt= -1 -1 -1 -1 -1 -1 -1 -1 -1 -1 -1
 NAtoms=     71 NQM=       71 NQMF=       0 NMMI=      0 NMMIF=      0
                NMic=       0 NMicF=      0.
                    Isotopes and Nuclear Properties:
 (Nuclear quadrupole moments (NQMom) in fm**2, nuclear magnetic moments (NMagM)
  in nuclear magnetons)

  Atom         1           2           3           4           5           6           7           8           9          10
 IAtWgt=          56          56          56          16          16          16          35          35          35          16
 AtmWgt=  55.9349393  55.9349393  55.9349393  15.9949146  15.9949146  15.9949146  34.9688527  34.9688527  34.9688527  15.9949146
 NucSpn=           0           0           0           0           0           0           3           3           3           0
 AtZEff=  25.2200000  25.2200000  25.2200000   5.6000000   5.6000000   5.6000000  14.2400000  14.2400000  14.2400000   5.6000000
 NQMom=    0.0000000   0.0000000   0.0000000   0.0000000   0.0000000   0.0000000  -8.1650000  -8.1650000  -8.1650000   0.0000000
 NMagM=    0.0000000   0.0000000   0.0000000   0.0000000   0.0000000   0.0000000   0.8218740   0.8218740   0.8218740   0.0000000
 AtZNuc=  26.0000000  26.0000000  26.0000000   8.0000000   8.0000000   8.0000000  17.0000000  17.0000000  17.0000000   8.0000000

  Atom        11          12          13          14          15          16          17          18          19          20
 IAtWgt=          16          16          16          14          14          14          14          12          12           1
 AtmWgt=  15.9949146  15.9949146  15.9949146  14.0030740  14.0030740  14.0030740  14.0030740  12.0000000  12.0000000   1.0078250
 NucSpn=           0           0           0           2           2           2           2           0           0           1
 AtZEff=   5.6000000   5.6000000   5.6000000   4.5500000   4.5500000   4.5500000   4.5500000   3.6000000   3.6000000   1.0000000
 NQMom=    0.0000000   0.0000000   0.0000000   2.0440000   2.0440000   2.0440000   2.0440000   0.0000000   0.0000000   0.0000000
 NMagM=    0.0000000   0.0000000   0.0000000   0.4037610   0.4037610   0.4037610   0.4037610   0.0000000   0.0000000   2.7928460
 AtZNuc=   8.0000000   8.0000000   8.0000000   7.0000000   7.0000000   7.0000000   7.0000000   6.0000000   6.0000000   1.0000000

  Atom        21          22          23          24          25          26          27          28          29          30
 IAtWgt=          12          12           1           1          12           1           1          12          12          12
 AtmWgt=  12.0000000  12.0000000   1.0078250   1.0078250  12.0000000   1.0078250   1.0078250  12.0000000  12.0000000  12.0000000
 NucSpn=           0           0           1           1           0           1           1           0           0           0
 AtZEff=   3.6000000   3.6000000   1.0000000   1.0000000   3.6000000   1.0000000   1.0000000   3.6000000   3.6000000   3.6000000
 NQMom=    0.0000000   0.0000000   0.0000000   0.0000000   0.0000000   0.0000000   0.0000000   0.0000000   0.0000000   0.0000000
 NMagM=    0.0000000   0.0000000   2.7928460   2.7928460   0.0000000   2.7928460   2.7928460   0.0000000   0.0000000   0.0000000
 AtZNuc=   6.0000000   6.0000000   1.0000000   1.0000000   6.0000000   1.0000000   1.0000000   6.0000000   6.0000000   6.0000000

  Atom        31          32          33          34          35          36          37          38          39          40
 IAtWgt=           1          12           1           1          12           1          12           1           1          12
 AtmWgt=   1.0078250  12.0000000   1.0078250   1.0078250  12.0000000   1.0078250  12.0000000   1.0078250   1.0078250  12.0000000
 NucSpn=           1           0           1           1           0           1           0           1           1           0
 AtZEff=   1.0000000   3.6000000   1.0000000   1.0000000   3.6000000   1.0000000   3.6000000   1.0000000   1.0000000   3.6000000
 NQMom=    0.0000000   0.0000000   0.0000000   0.0000000   0.0000000   0.0000000   0.0000000   0.0000000   0.0000000   0.0000000
 NMagM=    2.7928460   0.0000000   2.7928460   2.7928460   0.0000000   2.7928460   0.0000000   2.7928460   2.7928460   0.0000000
 AtZNuc=   1.0000000   6.0000000   1.0000000   1.0000000   6.0000000   1.0000000   6.0000000   1.0000000   1.0000000   6.0000000

  Atom        41          42          43          44          45          46          47          48          49          50
 IAtWgt=          12          12           1           1           1          12           1           1           1          12
 AtmWgt=  12.0000000  12.0000000   1.0078250   1.0078250   1.0078250  12.0000000   1.0078250   1.0078250   1.0078250  12.0000000
 NucSpn=           0           0           1           1           1           0           1           1           1           0
 AtZEff=   3.6000000   3.6000000   1.0000000   1.0000000   1.0000000   3.6000000   1.0000000   1.0000000   1.0000000   3.6000000
 NQMom=    0.0000000   0.0000000   0.0000000   0.0000000   0.0000000   0.0000000   0.0000000   0.0000000   0.0000000   0.0000000
 NMagM=    0.0000000   0.0000000   2.7928460   2.7928460   2.7928460   0.0000000   2.7928460   2.7928460   2.7928460   0.0000000
 AtZNuc=   6.0000000   6.0000000   1.0000000   1.0000000   1.0000000   6.0000000   1.0000000   1.0000000   1.0000000   6.0000000

  Atom        51          52          53          54          55          56          57          58          59          60
 IAtWgt=           1          12           1          12           1          12           1          12           1           1
 AtmWgt=   1.0078250  12.0000000   1.0078250  12.0000000   1.0078250  12.0000000   1.0078250  12.0000000   1.0078250   1.0078250
 NucSpn=           1           0           1           0           1           0           1           0           1           1
 AtZEff=   1.0000000   3.6000000   1.0000000   3.6000000   1.0000000   3.6000000   1.0000000   3.6000000   1.0000000   1.0000000
 NQMom=    0.0000000   0.0000000   0.0000000   0.0000000   0.0000000   0.0000000   0.0000000   0.0000000   0.0000000   0.0000000
 NMagM=    2.7928460   0.0000000   2.7928460   0.0000000   2.7928460   0.0000000   2.7928460   0.0000000   2.7928460   2.7928460
 AtZNuc=   1.0000000   6.0000000   1.0000000   6.0000000   1.0000000   6.0000000   1.0000000   6.0000000   1.0000000   1.0000000

  Atom        61          62          63          64          65          66          67          68          69          70
 IAtWgt=           1          12           1          12           1           1           1           1           1           1
 AtmWgt=   1.0078250  12.0000000   1.0078250  12.0000000   1.0078250   1.0078250   1.0078250   1.0078250   1.0078250   1.0078250
 NucSpn=           1           0           1           0           1           1           1           1           1           1
 AtZEff=   1.0000000   3.6000000   1.0000000   3.6000000   1.0000000   1.0000000   1.0000000   1.0000000   1.0000000   1.0000000
 NQMom=    0.0000000   0.0000000   0.0000000   0.0000000   0.0000000   0.0000000   0.0000000   0.0000000   0.0000000   0.0000000
 NMagM=    2.7928460   0.0000000   2.7928460   0.0000000   2.7928460   2.7928460   2.7928460   2.7928460   2.7928460   2.7928460
 AtZNuc=   1.0000000   6.0000000   1.0000000   6.0000000   1.0000000   1.0000000   1.0000000   1.0000000   1.0000000   1.0000000

  Atom        71
 IAtWgt=           1
 AtmWgt=   1.0078250
 NucSpn=           1
 AtZEff=   1.0000000
 NQMom=    0.0000000
 NMagM=    2.7928460
 AtZNuc=   1.0000000
 Leave Link  101 at Sun Sep  7 22:56:41 2025, MaxMem=  3221225472 cpu:               1.3 elap:               0.5
 (Enter /mnt/research/peralta/software/gaussian/g16B.03//g16/l202.exe)
 Symmetry turned off by external request.
 Stoichiometry    C22H32Cl3Fe3N4O7(6)
 Framework group  C1[X(C22H32Cl3Fe3N4O7)]
 Deg. of freedom   207
 Full point group                 C1      NOp   1
                          Input orientation:                          
 ---------------------------------------------------------------------
 Center     Atomic      Atomic             Coordinates (Angstroms)
 Number     Number       Type             X           Y           Z
 ---------------------------------------------------------------------
      1         26           0       -0.439941    0.175786   10.830498
      2         26           0        2.377917    2.399541   10.118445
      3         26           0       -0.538104    3.149791   10.365879
      4          8           0       -1.572873    1.774281   11.349062
      5          8           0        1.086890    3.818712    9.430202
      6          8           0        0.793712    1.502268   10.439660
      7         17           0        0.500735   -1.841989   10.284720
      8         17           0        4.061527    0.979902   10.875756
      9         17           0       -2.045629    4.839339   10.360254
     10          8           0       -1.452491    0.232414    9.035491
     11          8           0        2.440929    3.450852   11.884644
     12          8           0       -1.284914    2.433222    8.599011
     13          8           0        0.241240    3.808827   12.132590
     14          7           0       -2.253102   -0.827907   11.766118
     15          7           0        0.101040   -0.092492   12.908186
     16          7           0        2.703519    1.654227    8.116747
     17          7           0        3.819427    3.867722    9.183296
     18          6           0       -2.955108    1.513169   11.468528
     19          6           0        1.922604    0.721133    7.531337
     20          1           0        1.128478    0.437129    7.968628
     21          6           0       -1.687659    1.271967    8.338006
     22          6           0       -3.087223    0.259392   12.319401
     23          1           0       -2.802896    0.456458   13.246988
     24          1           0       -4.034362   -0.027837   12.342157
     25          6           0        4.627274    3.116901    8.209070
     26          1           0        5.378447    2.674569    8.678303
     27          1           0        5.009005    3.745668    7.546489
     28          6           0        1.677133    5.095469    9.271916
     29          6           0        3.810475    2.083276    7.497515
     30          6           0        1.103427    0.564236   13.520041
     31          1           0        1.634913    1.166721   13.013083
     32          6           0        2.971267    4.879776    8.487491
     33          1           0        2.759160    4.565900    7.572834
     34          1           0        3.464130    5.735248    8.414351
     35          6           0        2.257565    0.169685    6.304436
     36          1           0        1.699119   -0.486592    5.904513
     37          6           0       -1.710298   -1.686090   12.829235
     38          1           0       -1.331490   -2.507959   12.427830
     39          1           0       -2.440538   -1.952889   13.442158
     40          6           0       -0.637290   -0.968131   13.609544
     41          6           0        1.423149    3.900651   12.509159
     42          6           0        4.706428    4.529322   10.170509
     43          1           0        5.356019    5.092509    9.700136
     44          1           0        5.181144    3.848175   10.691167
     45          1           0        4.168271    5.084513   10.772652
     46          6           0       -3.031206   -1.653331   10.818963
     47          1           0       -3.741193   -2.124426   11.303107
     48          1           0       -2.438543   -2.306316   10.391469
     49          1           0       -3.429888   -1.076630   10.134224
     50          6           0        3.411853    0.584586    5.669696
     51          1           0        3.663150    0.203928    4.836354
     52          6           0        4.193193    1.551236    6.252230
     53          1           0        4.982098    1.857108    5.820293
     54          6           0       -0.385618   -1.202707   14.952564
     55          1           0       -0.912282   -1.829714   15.434215
     56          6           0        1.384555    0.391257   14.859415
     57          1           0        2.079591    0.888410   15.274448
     58          6           0       -2.522715    1.082034    7.095939
     59          1           0       -2.709611    1.954824    6.691344
     60          1           0       -3.366887    0.644654    7.333589
     61          1           0       -2.034096    0.523252    6.456087
     62          6           0        0.638130   -0.518171   15.589710
     63          1           0        0.823765   -0.670041   16.508924
     64          6           0        1.661299    4.597152   13.806167
     65          1           0        2.625524    4.686374   13.956820
     66          1           0        1.263686    4.075977   14.534654
     67          1           0        1.251161    5.486795   13.779337
     68          1           0       -3.392900    1.348043   10.485171
     69          1           0       -3.455444    2.350544   11.952664
     70          1           0        1.895308    5.532581   10.245186
     71          1           0        1.007782    5.753813    8.720125
 ---------------------------------------------------------------------
 Rotational constants (GHZ):           0.1047429           0.0699982           0.0677988
 Leave Link  202 at Sun Sep  7 22:56:42 2025, MaxMem=  3221225472 cpu:               0.8 elap:               0.4
 (Enter /mnt/research/peralta/software/gaussian/g16B.03//g16/l301.exe)
 General basis read from cards:  (5D, 7F)
 Centers:       1      2      3
 6-311+g**
 ****
 Centers:      18     19     21     22     25     28     29     30     32     35
 Centers:      37     40     41     42     46     50     52     54     56     58
 Centers:      62     64     20     23     24     26     27     31     33     34
 Centers:      36     38     39     43     44     45     47     48     49     51
 Centers:      53     55     57     59     60     61     63     65     66     67
 Centers:      68     69     70     71      4      5      6     10     11     12
 Centers:      13     14     15     16     17      7      8      9
 6-31g**
 ****
 Ernie: Thresh=  0.10000D-02 Tol=  0.10000D-05 Strict=F.
   850 basis functions,  1586 primitive gaussians,   907 cartesian basis functions
   191 alpha electrons      186 beta electrons
       nuclear repulsion energy      8783.1908191551 Hartrees.
 IExCor= 2709 DFT=T Ex+Corr=PBEh1PBE ExCW=0 ScaHFX=  0.250000
 ScaDFX=  0.750000  0.750000  1.000000  1.000000 ScalE2=  1.000000  1.000000
 IRadAn=      5 IRanWt=     -1 IRanGd=            0 ICorTp=0 IEmpDi=  4
 NAtoms=   71 NActive=   71 NUniq=   71 SFac= 1.00D+00 NAtFMM=   60 NAOKFM=T Big=T
 Integral buffers will be    131072 words long.
 Raffenetti 2 integral format.
 Two-electron integral symmetry is turned off.
 Leave Link  301 at Sun Sep  7 22:56:42 2025, MaxMem=  3221225472 cpu:               0.5 elap:               0.3
 (Enter /mnt/research/peralta/software/gaussian/g16B.03//g16/linda-exe/l302.exel)
 NPDir=0 NMtPBC=     1 NCelOv=     1 NCel=       1 NClECP=     1 NCelD=      1
         NCelK=      1 NCelE2=     1 NClLst=     1 CellRange=     0.0.
 One-electron integrals computed using PRISM.
 NBasis=   850 RedAO= T EigKep=  5.25D-04  NBF=   850
 NBsUse=   850 1.00D-06 EigRej= -1.00D+00 NBFU=   850
 Precomputing XC quadrature grid using
 IXCGrd= 4 IRadAn=           5 IRanWt=          -1 IRanGd=           0 AccXCQ= 0.00D+00.
 Generated NRdTot=       0 NPtTot=           0 NUsed=           0 NTot=          32
 NSgBfM=   880   880   880   880   880 MxSgAt=    71 MxSgA2=    71.
 Leave Link  302 at Sun Sep  7 22:57:04 2025, MaxMem=  3221225472 cpu:              50.6 elap:              17.8
 (Enter /mnt/research/peralta/software/gaussian/g16B.03//g16/l303.exe)
 DipDrv:  MaxL=1.
 Leave Link  303 at Sun Sep  7 22:57:05 2025, MaxMem=  3221225472 cpu:               2.6 elap:               1.3
 (Enter /mnt/research/peralta/software/gaussian/g16B.03/g16-local/l401.exe)
 Initial guess from the checkpoint file:  "Fe3-PBEh1PBE.4.chk"
 B after Tr=     0.000000    0.000000    0.000000
         Rot=    1.000000    0.000000    0.000000    0.000000 Ang=   0.00 deg.
 Guess basis will be translated and rotated to current coordinates.
 JPrj=2 DoOrth=T DoCkMO=T.
 Initial guess <Sx>= 0.0000 <Sy>= 0.0000 <Sz>= 2.5000 <S**2>=11.7582 S= 2.9653
 Massaging initial Density matrix for AFM guess.
 Atoms chosen for inverting spin-density: 
    3
 Basis to be inverted:
  117 118 119 120 121 122 123 124 125 126 127 128 129 130 131 132 133 134
  135 136 137 138 139 140 141 142 143 144 145 146 147 148 149 150 151 152
  153 154 155 156 157 158 159 160 161 162 163 164 165 166 167 168 169 170
  171 172 173 174
 Scaling the spin-density for the requested atoms.
 Scaling factor =   -1.000000000000000     
 NMTPBC=                       1
 Leave Link  401 at Sun Sep  7 22:57:23 2025, MaxMem=  3221225472 cpu:             112.5 elap:              17.8
 (Enter /mnt/research/peralta/software/gaussian/g16B.03/g16-local/l502.exe)
 Two-electron integral symmetry not used.
 UHF open shell SCF:
 Using DIIS extrapolation, IDIIS=  1040.
 NGot=  3221225472 LenX=  3219565874 LenY=  3218742318
 Requested convergence on RMS density matrix=1.00D-08 within 128 cycles.
 Requested convergence on MAX density matrix=1.00D-06.
 Requested convergence on             energy=1.00D-06.
 No special actions if energy rises.
 Error in input density:  TNEA=    188.0821 NAE=   191 TNEB=    188.9179 NBE=   186.
 Input dens not normalized.... using spin-flip?
 Fock matrices will be formed incrementally for  20 cycles.

 Cycle   1  Pass 1  IDiag  1:
 FoFJK:  IHMeth= 1 ICntrl=       0 DoSepK=F KAlg= 0 I1Cent=           0 FoldK=F
 IRaf= 860000000 NMat=       1 IRICut=       1 DoRegI=T DoRafI=F ISym2E= 0 IDoP0=0 IntGTp=1.
 FoFCou: FMM=T IPFlag=           0 FMFlag=      100000 FMFlg1=        2001
         NFxFlg=           0 DoJE=F BraDBF=F KetDBF=F FulRan=T
         wScrn=  0.000000 ICntrl=         0 IOpCl=  1 I1Cent=           0 NGrid=           0
         NMat0=    1 NMatS0=      1 NMatT0=    0 NMatD0=    1 NMtDS0=    0 NMtDT0=    0
 Symmetry not used in FoFCou.
 FMM levels:  10  Number of levels for PrismC:   9
 E= -6770.94074670436    
 DIIS: error= 4.76D-02 at cycle   1 NSaved=   1.
 NSaved= 1 IEnMin= 1 EnMin= -6770.94074670436     IErMin= 1 ErrMin= 4.76D-02
 ErrMax= 4.76D-02  0.00D+00 EMaxC= 1.00D-01 BMatC= 6.62D+00 BMatP= 6.62D+00
 IDIUse=3 WtCom= 5.24D-01 WtEn= 4.76D-01
 Coeff-Com:  0.100D+01
 Coeff-En:   0.100D+01
 Coeff:      0.100D+01
 Gap=    -0.196 Goal=   None    Shift=    0.000
 Gap=     0.163 Goal=   None    Shift=    0.000
 GapD=   -0.196 DampG=0.250 DampE=0.250 DampFc=0.1250 IDamp=-1.
 Damping current iteration by 1.25D-01
 RMSDP=3.78D-02 MaxDP=1.40D+01              OVMax= 9.99D-01

 Cycle   2  Pass 1  IDiag  1:
 RMSU=  4.73D-03    CP:  1.00D+00
 E= -6771.14870948061     Delta-E=       -0.207962776249 Rises=F Damp=T
 DIIS: error= 4.19D-02 at cycle   2 NSaved=   2.
 NSaved= 2 IEnMin= 2 EnMin= -6771.14870948061     IErMin= 2 ErrMin= 4.19D-02
 ErrMax= 4.19D-02  0.00D+00 EMaxC= 1.00D-01 BMatC= 1.02D+00 BMatP= 6.62D+00
 IDIUse=3 WtCom= 5.81D-01 WtEn= 4.19D-01
 Coeff-Com: -0.110D+00 0.111D+01
 Coeff-En:   0.351D+00 0.649D+00
 Coeff:      0.830D-01 0.917D+00
 Gap=    -0.004 Goal=   None    Shift=    0.000
 Gap=     0.031 Goal=   None    Shift=    0.000
 RMSDP=5.14D-03 MaxDP=1.75D+00 DE=-2.08D-01 OVMax= 9.74D-01

 Cycle   3  Pass 1  IDiag  1:
 RMSU=  2.31D-03    CP:  9.87D-01  2.91D-02
 E= -6769.62622838409     Delta-E=        1.522481096521 Rises=F Damp=F
 DIIS: error= 4.83D-02 at cycle   3 NSaved=   3.
 NSaved= 3 IEnMin= 2 EnMin= -6771.14870948061     IErMin= 2 ErrMin= 4.19D-02
 ErrMax= 4.83D-02  0.00D+00 EMaxC= 1.00D-01 BMatC= 1.29D+01 BMatP= 1.02D+00
 IDIUse=2 WtCom= 0.00D+00 WtEn= 1.00D+00
 EnCoef did   100 forward-backward iterations
 Coeff-En:   0.611D+00 0.435D-01 0.345D+00
 Coeff:      0.611D+00 0.435D-01 0.345D+00
 Gap=     0.101 Goal=   None    Shift=    0.000
 Gap=     0.370 Goal=   None    Shift=    0.000
 RMSDP=3.36D-03 MaxDP=2.48D-01 DE= 1.52D+00 OVMax= 9.98D-01

 Cycle   4  Pass 1  IDiag  1:
 RMSU=  3.05D-03    CP:  9.89D-01  8.15D-02  3.94D-01
 E= -6753.05219105470     Delta-E=       16.574037329390 Rises=F Damp=F
 DIIS: error= 1.42D-01 at cycle   4 NSaved=   4.
 NSaved= 4 IEnMin= 2 EnMin= -6771.14870948061     IErMin= 2 ErrMin= 4.19D-02
 ErrMax= 1.42D-01  0.00D+00 EMaxC= 1.00D-01 BMatC= 6.58D+01 BMatP= 1.02D+00
 IDIUse=2 WtCom= 0.00D+00 WtEn= 1.00D+00
 EnCoef did   100 forward-backward iterations
 Coeff-En:   0.537D+00 0.914D-02 0.376D+00 0.769D-01
 Coeff:      0.537D+00 0.914D-02 0.376D+00 0.769D-01
 Gap=    -0.047 Goal=   None    Shift=    0.000
 Gap=     0.066 Goal=   None    Shift=    0.000
 RMSDP=2.66D-03 MaxDP=1.62D-01 DE= 1.66D+01 OVMax= 9.19D-01

 Cycle   5  Pass 1  IDiag  1:
 RMSU=  1.56D-03    CP:  9.92D-01  3.86D-02  4.97D-01  3.02D-01
 E= -6768.73246998250     Delta-E=      -15.680278927804 Rises=F Damp=F
 DIIS: error= 9.76D-02 at cycle   5 NSaved=   5.
 NSaved= 5 IEnMin= 2 EnMin= -6771.14870948061     IErMin= 2 ErrMin= 4.19D-02
 ErrMax= 9.76D-02  0.00D+00 EMaxC= 1.00D-01 BMatC= 2.00D+01 BMatP= 1.02D+00
 IDIUse=2 WtCom= 0.00D+00 WtEn= 1.00D+00
 EnCoef did   100 forward-backward iterations
 Coeff-En:   0.367D+00 0.759D-02 0.373D+00 0.000D+00 0.253D+00
 Coeff:      0.367D+00 0.759D-02 0.373D+00 0.000D+00 0.253D+00
 Gap=     0.069 Goal=   None    Shift=    0.000
 Gap=     0.133 Goal=   None    Shift=    0.000
 RMSDP=1.69D-03 MaxDP=1.50D-01 DE=-1.57D+01 OVMax= 8.85D-01

 Cycle   6  Pass 1  IDiag  1:
 RMSU=  1.17D-03    CP:  9.89D-01  3.01D-02  6.68D-01  1.47D-01  3.22D-01
 E= -6771.84340937322     Delta-E=       -3.110939390723 Rises=F Damp=F
 DIIS: error= 1.98D-02 at cycle   6 NSaved=   6.
 NSaved= 6 IEnMin= 6 EnMin= -6771.84340937322     IErMin= 6 ErrMin= 1.98D-02
 ErrMax= 1.98D-02  0.00D+00 EMaxC= 1.00D-01 BMatC= 2.04D+00 BMatP= 1.02D+00
 IDIUse=2 WtCom= 0.00D+00 WtEn= 1.00D+00
 EnCoef did     2 forward-backward iterations
 Coeff-En:   0.582D-01 0.000D+00 0.000D+00 0.000D+00 0.154D+00 0.788D+00
 Coeff:      0.582D-01 0.000D+00 0.000D+00 0.000D+00 0.154D+00 0.788D+00
 Gap=     0.155 Goal=   None    Shift=    0.000
 Gap=     0.119 Goal=   None    Shift=    0.000
 RMSDP=2.39D-03 MaxDP=4.76D-01 DE=-3.11D+00 OVMax= 7.99D-01

 Cycle   7  Pass 1  IDiag  1:
 RMSU=  2.08D-03    CP:  9.80D-01  1.89D-02  4.76D-01  8.13D-02  5.39D-01
                    CP:  1.39D-01
 E= -6762.37792439294     Delta-E=        9.465484980281 Rises=F Damp=F
 DIIS: error= 8.99D-02 at cycle   7 NSaved=   7.
 NSaved= 7 IEnMin= 6 EnMin= -6771.84340937322     IErMin= 6 ErrMin= 1.98D-02
 ErrMax= 8.99D-02  0.00D+00 EMaxC= 1.00D-01 BMatC= 5.24D+01 BMatP= 1.02D+00
 IDIUse=2 WtCom= 0.00D+00 WtEn= 1.00D+00
 EnCoef did     8 forward-backward iterations
 Coeff-En:   0.000D+00 0.000D+00 0.000D+00 0.000D+00 0.108D+00 0.815D+00
 Coeff-En:   0.767D-01
 Coeff:      0.000D+00 0.000D+00 0.000D+00 0.000D+00 0.108D+00 0.815D+00
 Coeff:      0.767D-01
 Gap=     0.084 Goal=   None    Shift=    0.000
 Gap=     0.118 Goal=   None    Shift=    0.000
 RMSDP=1.76D-03 MaxDP=4.78D-01 DE= 9.47D+00 OVMax= 9.97D-01

 Cycle   8  Pass 1  IDiag  1:
 RMSU=  1.04D-03    CP:  9.85D-01  1.71D-02  6.10D-01  1.11D-01  5.91D-01
                    CP:  3.42D-01  3.51D-01
 E= -6771.40215174918     Delta-E=       -9.024227356233 Rises=F Damp=F
 DIIS: error= 3.40D-02 at cycle   8 NSaved=   8.
 NSaved= 8 IEnMin= 6 EnMin= -6771.84340937322     IErMin= 6 ErrMin= 1.98D-02
 ErrMax= 3.40D-02  0.00D+00 EMaxC= 1.00D-01 BMatC= 5.12D+00 BMatP= 1.02D+00
 IDIUse=2 WtCom= 0.00D+00 WtEn= 1.00D+00
 Coeff-En:   0.000D+00 0.000D+00 0.000D+00 0.000D+00 0.000D+00 0.615D+00
 Coeff-En:   0.000D+00 0.385D+00
 Coeff:      0.000D+00 0.000D+00 0.000D+00 0.000D+00 0.000D+00 0.615D+00
 Coeff:      0.000D+00 0.385D+00
 Gap=     0.076 Goal=   None    Shift=    0.000
 Gap=     0.012 Goal=   None    Shift=    0.000
 RMSDP=8.76D-04 MaxDP=7.11D-02 DE=-9.02D+00 OVMax= 6.49D-01

 Cycle   9  Pass 1  IDiag  1:
 RMSU=  6.01D-04    CP:  9.87D-01  2.36D-02  6.65D-01  1.48D-01  5.88D-01
                    CP:  5.62D-01  2.12D-01  5.44D-01
 E= -6772.22833003389     Delta-E=       -0.826178284717 Rises=F Damp=F
 DIIS: error= 1.27D-02 at cycle   9 NSaved=   9.
 NSaved= 9 IEnMin= 9 EnMin= -6772.22833003389     IErMin= 9 ErrMin= 1.27D-02
 ErrMax= 1.27D-02  0.00D+00 EMaxC= 1.00D-01 BMatC= 3.80D-01 BMatP= 1.02D+00
 IDIUse=3 WtCom= 8.73D-01 WtEn= 1.27D-01
 Coeff-Com:  0.747D-01-0.111D-01-0.227D-02 0.449D-04-0.841D-02 0.293D+00
 Coeff-Com: -0.583D-02 0.807D-01 0.579D+00
 Coeff-En:   0.000D+00 0.000D+00 0.000D+00 0.000D+00 0.000D+00 0.925D-01
 Coeff-En:   0.000D+00 0.000D+00 0.908D+00
 Coeff:      0.653D-01-0.970D-02-0.198D-02 0.392D-04-0.734D-02 0.267D+00
 Coeff:     -0.509D-02 0.705D-01 0.621D+00
 Gap=     0.079 Goal=   None    Shift=    0.000
 Gap=     0.139 Goal=   None    Shift=    0.000
 RMSDP=3.52D-04 MaxDP=3.32D-02 DE=-8.26D-01 OVMax= 1.20D-01

 Cycle  10  Pass 1  IDiag  1:
 RMSU=  3.34D-04    CP:  9.86D-01  2.03D-02  6.73D-01  1.30D-01  5.38D-01
                    CP:  5.63D-01  2.11D-01  5.53D-01  9.13D-01
 E= -6772.28104227029     Delta-E=       -0.052712236400 Rises=F Damp=F
 DIIS: error= 2.96D-03 at cycle  10 NSaved=  10.
 NSaved=10 IEnMin=10 EnMin= -6772.28104227029     IErMin=10 ErrMin= 2.96D-03
 ErrMax= 2.96D-03  0.00D+00 EMaxC= 1.00D-01 BMatC= 7.03D-02 BMatP= 3.80D-01
 IDIUse=3 WtCom= 9.70D-01 WtEn= 2.96D-02
 Coeff-Com:  0.236D-01 0.165D-01-0.789D-02-0.360D-02-0.275D-02 0.123D+00
 Coeff-Com:  0.781D-02-0.326D-01 0.280D+00 0.596D+00
 Coeff-En:   0.000D+00 0.000D+00 0.000D+00 0.000D+00 0.000D+00 0.000D+00
 Coeff-En:   0.000D+00 0.000D+00 0.000D+00 0.100D+01
 Coeff:      0.229D-01 0.160D-01-0.765D-02-0.350D-02-0.266D-02 0.120D+00
 Coeff:      0.758D-02-0.316D-01 0.272D+00 0.608D+00
 Gap=     0.114 Goal=   None    Shift=    0.000
 Gap=     0.144 Goal=   None    Shift=    0.000
 RMSDP=1.73D-04 MaxDP=1.71D-02 DE=-5.27D-02 OVMax= 4.91D-02

 Cycle  11  Pass 1  IDiag  1:
 RMSU=  1.33D-04    CP:  9.86D-01  2.16D-02  6.74D-01  1.40D-01  5.56D-01
                    CP:  5.63D-01  1.97D-01  4.92D-01  1.00D+00  8.42D-01
 E= -6772.29059723444     Delta-E=       -0.009554964148 Rises=F Damp=F
 DIIS: error= 3.58D-03 at cycle  11 NSaved=  11.
 NSaved=11 IEnMin=11 EnMin= -6772.29059723444     IErMin=10 ErrMin= 2.96D-03
 ErrMax= 3.58D-03  0.00D+00 EMaxC= 1.00D-01 BMatC= 3.69D-02 BMatP= 7.03D-02
 IDIUse=3 WtCom= 9.70D-01 WtEn= 2.96D-02
 Coeff-Com:  0.440D-02 0.192D-01 0.169D-02-0.312D-03-0.572D-02 0.442D-01
 Coeff-Com:  0.327D-02-0.123D-01-0.695D-01 0.358D+00 0.657D+00
 Coeff-En:   0.000D+00 0.000D+00 0.000D+00 0.000D+00 0.000D+00 0.000D+00
 Coeff-En:   0.000D+00 0.000D+00 0.000D+00 0.176D+00 0.824D+00
 Coeff:      0.427D-02 0.186D-01 0.164D-02-0.303D-03-0.555D-02 0.428D-01
 Coeff:      0.317D-02-0.119D-01-0.674D-01 0.352D+00 0.662D+00
 Gap=     0.133 Goal=   None    Shift=    0.000
 Gap=     0.144 Goal=   None    Shift=    0.000
 RMSDP=1.19D-04 MaxDP=2.16D-02 DE=-9.55D-03 OVMax= 2.86D-02

 Cycle  12  Pass 1  IDiag  1:
 RMSU=  9.83D-05    CP:  9.86D-01  2.00D-02  6.65D-01  1.33D-01  5.43D-01
                    CP:  5.72D-01  2.09D-01  5.09D-01  1.01D+00  9.52D-01
                    CP:  8.09D-01
 E= -6772.29677516403     Delta-E=       -0.006177929594 Rises=F Damp=F
 DIIS: error= 8.31D-04 at cycle  12 NSaved=  12.
 NSaved=12 IEnMin=12 EnMin= -6772.29677516403     IErMin=12 ErrMin= 8.31D-04
 ErrMax= 8.31D-04  0.00D+00 EMaxC= 1.00D-01 BMatC= 4.61D-03 BMatP= 3.69D-02
 IDIUse=3 WtCom= 9.92D-01 WtEn= 8.31D-03
 Coeff-Com: -0.366D-02 0.895D-02 0.187D-02 0.139D-03-0.866D-03 0.767D-02
 Coeff-Com: -0.752D-04 0.629D-02-0.134D+00-0.520D-03 0.398D+00 0.716D+00
 Coeff-En:   0.000D+00 0.000D+00 0.000D+00 0.000D+00 0.000D+00 0.000D+00
 Coeff-En:   0.000D+00 0.000D+00 0.000D+00 0.000D+00 0.000D+00 0.100D+01
 Coeff:     -0.362D-02 0.887D-02 0.185D-02 0.138D-03-0.858D-03 0.761D-02
 Coeff:     -0.746D-04 0.624D-02-0.133D+00-0.516D-03 0.395D+00 0.718D+00
 Gap=     0.143 Goal=   None    Shift=    0.000
 Gap=     0.150 Goal=   None    Shift=    0.000
 RMSDP=6.61D-05 MaxDP=1.42D-02 DE=-6.18D-03 OVMax= 2.77D-02

 Cycle  13  Pass 1  IDiag  1:
 RMSU=  3.89D-05    CP:  9.86D-01  2.03D-02  6.67D-01  1.34D-01  5.43D-01
                    CP:  5.69D-01  2.03D-01  4.98D-01  1.00D+00  1.05D+00
                    CP:  1.07D+00  8.38D-01
 E= -6772.29828849829     Delta-E=       -0.001513334257 Rises=F Damp=F
 DIIS: error= 2.42D-04 at cycle  13 NSaved=  13.
 NSaved=13 IEnMin=13 EnMin= -6772.29828849829     IErMin=13 ErrMin= 2.42D-04
 ErrMax= 2.42D-04  0.00D+00 EMaxC= 1.00D-01 BMatC= 6.93D-04 BMatP= 4.61D-03
 IDIUse=3 WtCom= 9.98D-01 WtEn= 2.42D-03
 Coeff-Com: -0.144D-02 0.249D-02 0.362D-04 0.276D-03 0.105D-03 0.439D-02
 Coeff-Com: -0.347D-03 0.369D-02-0.540D-01-0.405D-01 0.127D+00 0.357D+00
 Coeff-Com:  0.601D+00
 Coeff-En:   0.000D+00 0.000D+00 0.000D+00 0.000D+00 0.000D+00 0.000D+00
 Coeff-En:   0.000D+00 0.000D+00 0.000D+00 0.000D+00 0.000D+00 0.000D+00
 Coeff-En:   0.100D+01
 Coeff:     -0.144D-02 0.249D-02 0.362D-04 0.276D-03 0.105D-03 0.438D-02
 Coeff:     -0.346D-03 0.369D-02-0.538D-01-0.404D-01 0.126D+00 0.356D+00
 Coeff:      0.602D+00
 Gap=     0.147 Goal=   None    Shift=    0.000
 Gap=     0.150 Goal=   None    Shift=    0.000
 RMSDP=2.13D-05 MaxDP=3.17D-03 DE=-1.51D-03 OVMax= 8.19D-03

 Cycle  14  Pass 1  IDiag  1:
 RMSU=  1.73D-05    CP:  9.86D-01  2.03D-02  6.68D-01  1.35D-01  5.43D-01
                    CP:  5.70D-01  2.03D-01  4.96D-01  1.00D+00  1.05D+00
                    CP:  1.14D+00  9.12D-01  9.22D-01
 E= -6772.29845900110     Delta-E=       -0.000170502810 Rises=F Damp=F
 DIIS: error= 2.35D-04 at cycle  14 NSaved=  14.
 NSaved=14 IEnMin=14 EnMin= -6772.29845900110     IErMin=14 ErrMin= 2.35D-04
 ErrMax= 2.35D-04  0.00D+00 EMaxC= 1.00D-01 BMatC= 2.86D-04 BMatP= 6.93D-04
 IDIUse=3 WtCom= 9.98D-01 WtEn= 2.35D-03
 Coeff-Com:  0.726D-03-0.135D-02-0.114D-02 0.194D-03 0.631D-03 0.139D-02
 Coeff-Com: -0.350D-03 0.948D-04 0.416D-02-0.264D-01-0.297D-01 0.203D-01
 Coeff-Com:  0.419D+00 0.612D+00
 Coeff-En:   0.000D+00 0.000D+00 0.000D+00 0.000D+00 0.000D+00 0.000D+00
 Coeff-En:   0.000D+00 0.000D+00 0.000D+00 0.000D+00 0.000D+00 0.000D+00
 Coeff-En:   0.000D+00 0.100D+01
 Coeff:      0.724D-03-0.134D-02-0.114D-02 0.193D-03 0.630D-03 0.139D-02
 Coeff:     -0.350D-03 0.946D-04 0.415D-02-0.264D-01-0.297D-01 0.203D-01
 Coeff:      0.418D+00 0.613D+00
 Gap=     0.150 Goal=   None    Shift=    0.000
 Gap=     0.150 Goal=   None    Shift=    0.000
 RMSDP=1.35D-05 MaxDP=1.66D-03 DE=-1.71D-04 OVMax= 4.74D-03

 Cycle  15  Pass 1  IDiag  1:
 RMSU=  8.23D-06    CP:  9.86D-01  2.02D-02  6.67D-01  1.35D-01  5.42D-01
                    CP:  5.70D-01  2.03D-01  4.96D-01  1.01D+00  1.05D+00
                    CP:  1.17D+00  9.83D-01  1.08D+00  8.26D-01
 E= -6772.29853764788     Delta-E=       -0.000078646777 Rises=F Damp=F
 DIIS: error= 9.67D-05 at cycle  15 NSaved=  15.
 NSaved=15 IEnMin=15 EnMin= -6772.29853764788     IErMin=15 ErrMin= 9.67D-05
 ErrMax= 9.67D-05  0.00D+00 EMaxC= 1.00D-01 BMatC= 6.17D-05 BMatP= 2.86D-04
 IDIUse=1 WtCom= 1.00D+00 WtEn= 0.00D+00
 Coeff-Com:  0.174D-03-0.154D-04-0.859D-03 0.144D-03 0.184D-03-0.345D-03
 Coeff-Com: -0.440D-04 0.902D-04 0.901D-02 0.473D-02-0.227D-01-0.521D-01
 Coeff-Com:  0.687D-01 0.220D+00 0.773D+00
 Coeff:      0.174D-03-0.154D-04-0.859D-03 0.144D-03 0.184D-03-0.345D-03
 Coeff:     -0.440D-04 0.902D-04 0.901D-02 0.473D-02-0.227D-01-0.521D-01
 Coeff:      0.687D-01 0.220D+00 0.773D+00
 Gap=     0.151 Goal=   None    Shift=    0.000
 Gap=     0.150 Goal=   None    Shift=    0.000
 RMSDP=5.84D-06 MaxDP=8.77D-04 DE=-7.86D-05 OVMax= 2.75D-03

 Cycle  16  Pass 1  IDiag  1:
 RMSU=  4.17D-06    CP:  9.86D-01  2.03D-02  6.67D-01  1.35D-01  5.43D-01
                    CP:  5.71D-01  2.03D-01  4.96D-01  1.00D+00  1.05D+00
                    CP:  1.18D+00  9.93D-01  1.15D+00  9.38D-01  9.75D-01
 E= -6772.29855084681     Delta-E=       -0.000013198931 Rises=F Damp=F
 DIIS: error= 1.01D-04 at cycle  16 NSaved=  16.
 NSaved=16 IEnMin=16 EnMin= -6772.29855084681     IErMin=15 ErrMin= 9.67D-05
 ErrMax= 1.01D-04  0.00D+00 EMaxC= 1.00D-01 BMatC= 3.30D-05 BMatP= 6.17D-05
 IDIUse=1 WtCom= 1.00D+00 WtEn= 0.00D+00
 Coeff-Com: -0.520D-04 0.366D-03-0.426D-03 0.751D-04 0.218D-04-0.917D-03
 Coeff-Com:  0.687D-04 0.922D-04 0.502D-02 0.118D-01-0.910D-03-0.327D-01
 Coeff-Com: -0.602D-01-0.423D-01 0.475D+00 0.645D+00
 Coeff:     -0.520D-04 0.366D-03-0.426D-03 0.751D-04 0.218D-04-0.917D-03
 Coeff:      0.687D-04 0.922D-04 0.502D-02 0.118D-01-0.910D-03-0.327D-01
 Coeff:     -0.602D-01-0.423D-01 0.475D+00 0.645D+00
 Gap=     0.151 Goal=   None    Shift=    0.000
 Gap=     0.150 Goal=   None    Shift=    0.000
 RMSDP=3.34D-06 MaxDP=6.42D-04 DE=-1.32D-05 OVMax= 1.56D-03

 Cycle  17  Pass 1  IDiag  1:
 RMSU=  2.31D-06    CP:  9.86D-01  2.03D-02  6.67D-01  1.35D-01  5.43D-01
                    CP:  5.71D-01  2.03D-01  4.96D-01  1.00D+00  1.05D+00
                    CP:  1.18D+00  9.97D-01  1.18D+00  9.97D-01  1.15D+00
                    CP:  7.99D-01
 E= -6772.29855650406     Delta-E=       -0.000005657248 Rises=F Damp=F
 DIIS: error= 4.34D-05 at cycle  17 NSaved=  17.
 NSaved=17 IEnMin=17 EnMin= -6772.29855650406     IErMin=17 ErrMin= 4.34D-05
 ErrMax= 4.34D-05  0.00D+00 EMaxC= 1.00D-01 BMatC= 8.04D-06 BMatP= 3.30D-05
 IDIUse=1 WtCom= 1.00D+00 WtEn= 0.00D+00
 Coeff-Com:  0.501D-04-0.136D-04 0.636D-05 0.519D-04-0.316D-04-0.695D-03
 Coeff-Com:  0.184D-04-0.855D-05 0.139D-03 0.444D-02 0.113D-01 0.568D-02
 Coeff-Com: -0.515D-01-0.113D+00-0.467D-01 0.360D+00 0.830D+00
 Coeff:      0.501D-04-0.136D-04 0.636D-05 0.519D-04-0.316D-04-0.695D-03
 Coeff:      0.184D-04-0.855D-05 0.139D-03 0.444D-02 0.113D-01 0.568D-02
 Coeff:     -0.515D-01-0.113D+00-0.467D-01 0.360D+00 0.830D+00
 Gap=     0.152 Goal=   None    Shift=    0.000
 Gap=     0.150 Goal=   None    Shift=    0.000
 RMSDP=2.37D-06 MaxDP=2.36D-04 DE=-5.66D-06 OVMax= 8.18D-04

 Cycle  18  Pass 1  IDiag  1:
 RMSU=  1.34D-06    CP:  9.86D-01  2.03D-02  6.67D-01  1.35D-01  5.43D-01
                    CP:  5.71D-01  2.03D-01  4.96D-01  1.00D+00  1.05D+00
                    CP:  1.19D+00  1.01D+00  1.19D+00  1.02D+00  1.23D+00
                    CP:  1.06D+00  9.57D-01
 E= -6772.29855825613     Delta-E=       -0.000001752072 Rises=F Damp=F
 DIIS: error= 2.16D-05 at cycle  18 NSaved=  18.
 NSaved=18 IEnMin=18 EnMin= -6772.29855825613     IErMin=18 ErrMin= 2.16D-05
 ErrMax= 2.16D-05  0.00D+00 EMaxC= 1.00D-01 BMatC= 1.49D-06 BMatP= 8.04D-06
 IDIUse=1 WtCom= 1.00D+00 WtEn= 0.00D+00
 Coeff-Com:  0.588D-05 0.461D-05 0.130D-04 0.175D-04 0.482D-05-0.233D-03
 Coeff-Com:  0.296D-05-0.623D-04-0.487D-03 0.944D-03 0.678D-02 0.866D-02
 Coeff-Com: -0.169D-01-0.561D-01-0.107D+00 0.762D-01 0.466D+00 0.622D+00
 Coeff:      0.588D-05 0.461D-05 0.130D-04 0.175D-04 0.482D-05-0.233D-03
 Coeff:      0.296D-05-0.623D-04-0.487D-03 0.944D-03 0.678D-02 0.866D-02
 Coeff:     -0.169D-01-0.561D-01-0.107D+00 0.762D-01 0.466D+00 0.622D+00
 Gap=     0.152 Goal=   None    Shift=    0.000
 Gap=     0.150 Goal=   None    Shift=    0.000
 RMSDP=7.03D-07 MaxDP=9.63D-05 DE=-1.75D-06 OVMax= 2.30D-04

 Cycle  19  Pass 1  IDiag  1:
 RMSU=  5.51D-07    CP:  9.86D-01  2.03D-02  6.67D-01  1.35D-01  5.43D-01
                    CP:  5.71D-01  2.03D-01  4.96D-01  1.00D+00  1.05D+00
                    CP:  1.19D+00  1.01D+00  1.20D+00  1.02D+00  1.25D+00
                    CP:  1.09D+00  1.07D+00  8.64D-01
 E= -6772.29855852715     Delta-E=       -0.000000271019 Rises=F Damp=F
 DIIS: error= 3.71D-06 at cycle  19 NSaved=  19.
 NSaved=19 IEnMin=19 EnMin= -6772.29855852715     IErMin=19 ErrMin= 3.71D-06
 ErrMax= 3.71D-06  0.00D+00 EMaxC= 1.00D-01 BMatC= 1.52D-07 BMatP= 1.49D-06
 IDIUse=1 WtCom= 1.00D+00 WtEn= 0.00D+00
 Coeff-Com: -0.232D-05 0.757D-05-0.470D-05 0.821D-05 0.839D-05-0.267D-04
 Coeff-Com: -0.419D-05-0.366D-04-0.321D-03-0.120D-03 0.170D-02 0.288D-02
 Coeff-Com:  0.232D-03-0.888D-02-0.405D-01-0.273D-01 0.899D-01 0.310D+00
 Coeff-Com:  0.672D+00
 Coeff:     -0.232D-05 0.757D-05-0.470D-05 0.821D-05 0.839D-05-0.267D-04
 Coeff:     -0.419D-05-0.366D-04-0.321D-03-0.120D-03 0.170D-02 0.288D-02
 Coeff:      0.232D-03-0.888D-02-0.405D-01-0.273D-01 0.899D-01 0.310D+00
 Coeff:      0.672D+00
 Gap=     0.152 Goal=   None    Shift=    0.000
 Gap=     0.150 Goal=   None    Shift=    0.000
 RMSDP=3.28D-07 MaxDP=3.13D-05 DE=-2.71D-07 OVMax= 8.69D-05

 Cycle  20  Pass 1  IDiag  1:
 RMSU=  2.51D-07    CP:  9.86D-01  2.03D-02  6.67D-01  1.35D-01  5.43D-01
                    CP:  5.71D-01  2.03D-01  4.96D-01  1.00D+00  1.05D+00
                    CP:  1.19D+00  1.01D+00  1.20D+00  1.02D+00  1.24D+00
                    CP:  1.10D+00  1.12D+00  9.53D-01  8.22D-01
 E= -6772.29855855737     Delta-E=       -0.000000030221 Rises=F Damp=F
 DIIS: error= 1.81D-06 at cycle  20 NSaved=  20.
 NSaved=20 IEnMin=20 EnMin= -6772.29855855737     IErMin=20 ErrMin= 1.81D-06
 ErrMax= 1.81D-06  0.00D+00 EMaxC= 1.00D-01 BMatC= 2.91D-08 BMatP= 1.52D-07
 IDIUse=1 WtCom= 1.00D+00 WtEn= 0.00D+00
 Coeff-Com: -0.700D-05 0.185D-04-0.481D-05 0.308D-05 0.286D-05 0.160D-04
 Coeff-Com: -0.296D-05-0.140D-04-0.518D-04-0.116D-03-0.745D-04-0.174D-03
 Coeff-Com:  0.259D-02 0.406D-02-0.200D-02-0.238D-01-0.209D-01 0.626D-01
 Coeff-Com:  0.354D+00 0.624D+00
 Coeff:     -0.700D-05 0.185D-04-0.481D-05 0.308D-05 0.286D-05 0.160D-04
 Coeff:     -0.296D-05-0.140D-04-0.518D-04-0.116D-03-0.745D-04-0.174D-03
 Coeff:      0.259D-02 0.406D-02-0.200D-02-0.238D-01-0.209D-01 0.626D-01
 Coeff:      0.354D+00 0.624D+00
 Gap=     0.152 Goal=   None    Shift=    0.000
 Gap=     0.150 Goal=   None    Shift=    0.000
 RMSDP=1.63D-07 MaxDP=1.29D-05 DE=-3.02D-08 OVMax= 4.14D-05

 Cycle  21  Pass 1  IDiag  1:
 Restarting incremental Fock formation.
 E= -6772.29855857507     Delta-E=       -0.000000017704 Rises=F Damp=F
 DIIS: error= 7.77D-07 at cycle  21 NSaved=  20.
 NSaved=20 IEnMin=20 EnMin= -6772.29855857507     IErMin=20 ErrMin= 7.77D-07
 ErrMax= 7.77D-07  0.00D+00 EMaxC= 1.00D-01 BMatC= 6.55D-09 BMatP= 2.91D-08
 IDIUse=1 WtCom= 1.00D+00 WtEn= 0.00D+00
 Coeff-Com: -0.235D-05 0.576D-05-0.176D-05 0.671D-06 0.106D-04-0.178D-06
 Coeff-Com: -0.258D-05 0.433D-04-0.640D-04-0.387D-03-0.804D-03 0.122D-02
 Coeff-Com:  0.388D-02 0.840D-02-0.462D-02-0.271D-01-0.365D-01 0.246D-01
 Coeff-Com:  0.331D+00 0.701D+00
 Coeff:     -0.235D-05 0.576D-05-0.176D-05 0.671D-06 0.106D-04-0.178D-06
 Coeff:     -0.258D-05 0.433D-04-0.640D-04-0.387D-03-0.804D-03 0.122D-02
 Coeff:      0.388D-02 0.840D-02-0.462D-02-0.271D-01-0.365D-01 0.246D-01
 Coeff:      0.331D+00 0.701D+00
 Gap=     0.152 Goal=   None    Shift=    0.000
 Gap=     0.150 Goal=   None    Shift=    0.000
 RMSDP=7.69D-08 MaxDP=8.11D-06 DE=-1.77D-08 OVMax= 2.53D-05

 Cycle  22  Pass 1  IDiag  1:
 RMSU=  7.68D-08    CP:  1.00D+00
 E= -6772.29855857329     Delta-E=        0.000000001779 Rises=F Damp=F
 DIIS: error= 4.34D-07 at cycle  22 NSaved=  20.
 NSaved=20 IEnMin=19 EnMin= -6772.29855857507     IErMin=20 ErrMin= 4.34D-07
 ErrMax= 4.34D-07  0.00D+00 EMaxC= 1.00D-01 BMatC= 1.94D-09 BMatP= 6.55D-09
 IDIUse=1 WtCom= 1.00D+00 WtEn= 0.00D+00
 Coeff-Com:  0.177D-05-0.186D-05 0.984D-08-0.609D-06 0.380D-06 0.275D-05
 Coeff-Com:  0.245D-04-0.503D-04-0.201D-03-0.414D-03 0.300D-03 0.147D-02
 Coeff-Com:  0.520D-02 0.179D-02-0.103D-01-0.282D-01-0.417D-01 0.882D-01
 Coeff-Com:  0.403D+00 0.581D+00
 Coeff:      0.177D-05-0.186D-05 0.984D-08-0.609D-06 0.380D-06 0.275D-05
 Coeff:      0.245D-04-0.503D-04-0.201D-03-0.414D-03 0.300D-03 0.147D-02
 Coeff:      0.520D-02 0.179D-02-0.103D-01-0.282D-01-0.417D-01 0.882D-01
 Coeff:      0.403D+00 0.581D+00
 Gap=     0.152 Goal=   None    Shift=    0.000
 Gap=     0.150 Goal=   None    Shift=    0.000
 RMSDP=3.77D-08 MaxDP=3.69D-06 DE= 1.78D-09 OVMax= 9.18D-06

 Cycle  23  Pass 1  IDiag  1:
 RMSU=  3.76D-08    CP:  1.00D+00  1.04D+00
 E= -6772.29855857971     Delta-E=       -0.000000006417 Rises=F Damp=F
 DIIS: error= 2.32D-07 at cycle  23 NSaved=  20.
 NSaved=20 IEnMin=20 EnMin= -6772.29855857971     IErMin=20 ErrMin= 2.32D-07
 ErrMax= 2.32D-07  0.00D+00 EMaxC= 1.00D-01 BMatC= 2.06D-10 BMatP= 1.94D-09
 IDIUse=1 WtCom= 1.00D+00 WtEn= 0.00D+00
 Coeff-Com:  0.152D-05-0.245D-05 0.471D-06-0.217D-05 0.274D-05-0.726D-05
 Coeff-Com: -0.242D-04-0.716D-05 0.321D-04 0.306D-04-0.575D-04-0.570D-04
 Coeff-Com:  0.823D-03 0.111D-02-0.113D-02-0.139D-01-0.262D-01-0.969D-02
 Coeff-Com:  0.176D+00 0.873D+00
 Coeff:      0.152D-05-0.245D-05 0.471D-06-0.217D-05 0.274D-05-0.726D-05
 Coeff:     -0.242D-04-0.716D-05 0.321D-04 0.306D-04-0.575D-04-0.570D-04
 Coeff:      0.823D-03 0.111D-02-0.113D-02-0.139D-01-0.262D-01-0.969D-02
 Coeff:      0.176D+00 0.873D+00
 Gap=     0.152 Goal=   None    Shift=    0.000
 Gap=     0.150 Goal=   None    Shift=    0.000
 RMSDP=2.00D-08 MaxDP=1.57D-06 DE=-6.42D-09 OVMax= 6.09D-06

 Cycle  24  Pass 1  IDiag  1:
 RMSU=  1.63D-08    CP:  1.00D+00  1.18D+00  1.13D+00
 E= -6772.29855856946     Delta-E=        0.000000010255 Rises=F Damp=F
 DIIS: error= 1.60D-07 at cycle  24 NSaved=  20.
 NSaved=20 IEnMin=19 EnMin= -6772.29855857971     IErMin=20 ErrMin= 1.60D-07
 ErrMax= 1.60D-07  0.00D+00 EMaxC= 1.00D-01 BMatC= 1.16D-10 BMatP= 2.06D-10
 IDIUse=1 WtCom= 1.00D+00 WtEn= 0.00D+00
 Coeff-Com: -0.157D-06-0.582D-07-0.471D-06 0.209D-06-0.594D-05 0.142D-04
 Coeff-Com:  0.518D-04 0.103D-03-0.867D-04-0.392D-03-0.128D-02-0.253D-03
 Coeff-Com:  0.220D-02 0.520D-02 0.263D-02-0.337D-01-0.106D+00-0.870D-01
 Coeff-Com:  0.371D+00 0.847D+00
 Coeff:     -0.157D-06-0.582D-07-0.471D-06 0.209D-06-0.594D-05 0.142D-04
 Coeff:      0.518D-04 0.103D-03-0.867D-04-0.392D-03-0.128D-02-0.253D-03
 Coeff:      0.220D-02 0.520D-02 0.263D-02-0.337D-01-0.106D+00-0.870D-01
 Coeff:      0.371D+00 0.847D+00
 Gap=     0.152 Goal=   None    Shift=    0.000
 Gap=     0.150 Goal=   None    Shift=    0.000
 RMSDP=1.51D-08 MaxDP=1.42D-06 DE= 1.03D-08 OVMax= 5.45D-06

 Cycle  25  Pass 1  IDiag  1:
 RMSU=  1.07D-08    CP:  1.00D+00  1.26D+00  1.31D+00  1.36D+00
 E= -6772.29855856977     Delta-E=       -0.000000000313 Rises=F Damp=F
 DIIS: error= 1.04D-07 at cycle  25 NSaved=  20.
 NSaved=20 IEnMin=18 EnMin= -6772.29855857971     IErMin=20 ErrMin= 1.04D-07
 ErrMax= 1.04D-07  0.00D+00 EMaxC= 1.00D-01 BMatC= 4.66D-11 BMatP= 1.16D-10
 IDIUse=1 WtCom= 1.00D+00 WtEn= 0.00D+00
 Coeff-Com:  0.100D-07 0.598D-06-0.105D-05 0.252D-05 0.196D-04 0.305D-04
 Coeff-Com:  0.388D-04-0.101D-03-0.252D-03-0.654D-03-0.145D-03 0.896D-03
 Coeff-Com:  0.189D-02 0.706D-03-0.165D-01-0.513D-01-0.746D-01 0.252D-01
 Coeff-Com:  0.452D+00 0.663D+00
 Coeff:      0.100D-07 0.598D-06-0.105D-05 0.252D-05 0.196D-04 0.305D-04
 Coeff:      0.388D-04-0.101D-03-0.252D-03-0.654D-03-0.145D-03 0.896D-03
 Coeff:      0.189D-02 0.706D-03-0.165D-01-0.513D-01-0.746D-01 0.252D-01
 Coeff:      0.452D+00 0.663D+00
 Gap=     0.152 Goal=   None    Shift=    0.000
 Gap=     0.150 Goal=   None    Shift=    0.000
 RMSDP=8.39D-09 MaxDP=8.80D-07 DE=-3.13D-10 OVMax= 2.88D-06

 SCF Done:  E(UPBEh1PBE) =  -6772.29855857     A.U. after   25 cycles
            NFock= 25  Conv=0.84D-08     -V/T= 2.0013
 <Sx>= 0.0000 <Sy>= 0.0000 <Sz>= 2.5000 <S**2>=13.7128 S= 3.2367
 <L.S>= 0.000000000000E+00
 KE= 6.763636538605D+03 PE=-3.362003687025D+04 EE= 1.130091095392D+04
 Annihilation of the first spin contaminant:
 S**2 before annihilation    13.7128,   after    21.9668
 Leave Link  502 at Mon Sep  8 01:31:37 2025, MaxMem=  3221225472 cpu:           24232.9 elap:            9254.0
 (Enter /mnt/research/peralta/software/gaussian/g16B.03//g16/l601.exe)
 Copying SCF densities to generalized density rwf, IOpCl= 1 IROHF=0.

 **********************************************************************

            Population analysis using the SCF Density.

 **********************************************************************

 Alpha  occ. eigenvalues -- -256.44909-256.44267-256.44131-101.61385-101.61076
 Alpha  occ. eigenvalues -- -101.60530 -30.25569 -30.25439 -30.16481 -26.08232
 Alpha  occ. eigenvalues --  -26.08130 -26.08115 -26.08031 -26.07990 -26.07895
 Alpha  occ. eigenvalues --  -26.00691 -26.00671 -26.00616 -19.20618 -19.20388
 Alpha  occ. eigenvalues --  -19.20103 -19.20079 -19.19652 -19.19499 -19.17624
 Alpha  occ. eigenvalues --  -14.44414 -14.44014 -14.43836 -14.43812 -10.34356
 Alpha  occ. eigenvalues --  -10.34308 -10.30270 -10.30081 -10.27224 -10.27184
 Alpha  occ. eigenvalues --  -10.26878 -10.26483 -10.26403 -10.26137 -10.25741
 Alpha  occ. eigenvalues --  -10.25371 -10.24836 -10.24799 -10.24732 -10.24315
 Alpha  occ. eigenvalues --  -10.24142 -10.23988 -10.22600 -10.22271 -10.18555
 Alpha  occ. eigenvalues --  -10.18539  -9.43630  -9.43272  -9.42862  -7.16580
 Alpha  occ. eigenvalues --   -7.16295  -7.16250  -7.16231  -7.15939  -7.15891
 Alpha  occ. eigenvalues --   -7.15693  -7.15474  -7.15420  -3.69573  -3.69455
 Alpha  occ. eigenvalues --   -3.46647  -2.45755  -2.45654  -2.45548  -2.45506
 Alpha  occ. eigenvalues --   -2.45430  -2.45375  -2.21135  -2.20999  -2.20930
 Alpha  occ. eigenvalues --   -1.09365  -1.08806  -1.01483  -1.01394  -1.00179
 Alpha  occ. eigenvalues --   -1.00011  -0.99918  -0.99644  -0.97486  -0.97409
 Alpha  occ. eigenvalues --   -0.92533  -0.85860  -0.85838  -0.83716  -0.83691
 Alpha  occ. eigenvalues --   -0.78605  -0.78566  -0.77768  -0.77335  -0.76968
 Alpha  occ. eigenvalues --   -0.76817  -0.74755  -0.74214  -0.73090  -0.70280
 Alpha  occ. eigenvalues --   -0.70154  -0.68969  -0.68952  -0.65993  -0.65790
 Alpha  occ. eigenvalues --   -0.63101  -0.62767  -0.58592  -0.58571  -0.57018
 Alpha  occ. eigenvalues --   -0.56631  -0.54587  -0.54540  -0.53765  -0.53654
 Alpha  occ. eigenvalues --   -0.52742  -0.52693  -0.52155  -0.51942  -0.51243
 Alpha  occ. eigenvalues --   -0.50901  -0.50590  -0.50449  -0.49796  -0.48698
 Alpha  occ. eigenvalues --   -0.48381  -0.48208  -0.47972  -0.47844  -0.47565
 Alpha  occ. eigenvalues --   -0.47431  -0.47212  -0.46880  -0.46634  -0.45998
 Alpha  occ. eigenvalues --   -0.45757  -0.45581  -0.45333  -0.45199  -0.44982
 Alpha  occ. eigenvalues --   -0.44419  -0.44108  -0.43978  -0.43824  -0.43773
 Alpha  occ. eigenvalues --   -0.43293  -0.42820  -0.42327  -0.42272  -0.42186
 Alpha  occ. eigenvalues --   -0.41882  -0.41364  -0.40949  -0.40798  -0.40467
 Alpha  occ. eigenvalues --   -0.39722  -0.39650  -0.39507  -0.39246  -0.38890
 Alpha  occ. eigenvalues --   -0.38253  -0.35667  -0.35155  -0.33428  -0.33142
 Alpha  occ. eigenvalues --   -0.32865  -0.32417  -0.32029  -0.31490  -0.31173
 Alpha  occ. eigenvalues --   -0.30963  -0.29925  -0.29682  -0.29481  -0.28891
 Alpha  occ. eigenvalues --   -0.28508  -0.28390  -0.28268  -0.27179  -0.26982
 Alpha  occ. eigenvalues --   -0.26165  -0.26146  -0.25922  -0.25824  -0.25580
 Alpha  occ. eigenvalues --   -0.25492  -0.25212  -0.24710  -0.24334  -0.24294
 Alpha  occ. eigenvalues --   -0.22259
 Alpha virt. eigenvalues --   -0.07107  -0.06855  -0.06776  -0.04702  -0.04273
 Alpha virt. eigenvalues --   -0.03292  -0.02525  -0.02306  -0.02165   0.00792
 Alpha virt. eigenvalues --    0.01182   0.02809   0.04149   0.04382   0.08971
 Alpha virt. eigenvalues --    0.10024   0.10666   0.10931   0.11556   0.12086
 Alpha virt. eigenvalues --    0.12224   0.12471   0.12910   0.13401   0.13633
 Alpha virt. eigenvalues --    0.14206   0.14502   0.14914   0.15172   0.15726
 Alpha virt. eigenvalues --    0.15835   0.16306   0.16372   0.16525   0.16876
 Alpha virt. eigenvalues --    0.17375   0.17656   0.18241   0.18837   0.19151
 Alpha virt. eigenvalues --    0.19850   0.19966   0.20105   0.20330   0.20580
 Alpha virt. eigenvalues --    0.20778   0.20890   0.21085   0.21422   0.21610
 Alpha virt. eigenvalues --    0.21674   0.22278   0.22473   0.22747   0.22896
 Alpha virt. eigenvalues --    0.23225   0.23578   0.23724   0.23906   0.24128
 Alpha virt. eigenvalues --    0.24659   0.25241   0.25308   0.25545   0.26045
 Alpha virt. eigenvalues --    0.26320   0.26678   0.26831   0.27269   0.27665
 Alpha virt. eigenvalues --    0.28165   0.28770   0.28938   0.29671   0.29709
 Alpha virt. eigenvalues --    0.30685   0.30971   0.31290   0.31592   0.32013
 Alpha virt. eigenvalues --    0.32262   0.32732   0.32830   0.33732   0.34124
 Alpha virt. eigenvalues --    0.34609   0.34670   0.35742   0.35876   0.36598
 Alpha virt. eigenvalues --    0.36731   0.37172   0.37454   0.37658   0.38215
 Alpha virt. eigenvalues --    0.40037   0.41072   0.41239   0.42421   0.43188
 Alpha virt. eigenvalues --    0.43830   0.44878   0.45176   0.45534   0.45890
 Alpha virt. eigenvalues --    0.47298   0.47773   0.48760   0.49042   0.49616
 Alpha virt. eigenvalues --    0.50276   0.50836   0.51449   0.52115   0.52573
 Alpha virt. eigenvalues --    0.52933   0.53152   0.53883   0.53981   0.54510
 Alpha virt. eigenvalues --    0.54791   0.55206   0.55865   0.56149   0.56685
 Alpha virt. eigenvalues --    0.57027   0.57175   0.57713   0.58159   0.58561
 Alpha virt. eigenvalues --    0.58941   0.59513   0.60151   0.60442   0.61033
 Alpha virt. eigenvalues --    0.61162   0.61362   0.61487   0.61897   0.62195
 Alpha virt. eigenvalues --    0.62428   0.62989   0.63336   0.63430   0.63563
 Alpha virt. eigenvalues --    0.64468   0.64587   0.65110   0.65587   0.65993
 Alpha virt. eigenvalues --    0.66817   0.66888   0.67165   0.67784   0.68384
 Alpha virt. eigenvalues --    0.68791   0.69770   0.70533   0.70837   0.71400
 Alpha virt. eigenvalues --    0.72184   0.72913   0.73294   0.74203   0.74380
 Alpha virt. eigenvalues --    0.75570   0.75866   0.76388   0.77152   0.77984
 Alpha virt. eigenvalues --    0.78128   0.79392   0.80351   0.81167   0.81931
 Alpha virt. eigenvalues --    0.82418   0.83388   0.83783   0.84352   0.84905
 Alpha virt. eigenvalues --    0.85313   0.85508   0.86737   0.87310   0.87794
 Alpha virt. eigenvalues --    0.88118   0.88469   0.89262   0.89405   0.89800
 Alpha virt. eigenvalues --    0.90247   0.90755   0.91029   0.91171   0.91322
 Alpha virt. eigenvalues --    0.92035   0.92329   0.92535   0.92614   0.93619
 Alpha virt. eigenvalues --    0.94002   0.94273   0.94606   0.94995   0.95297
 Alpha virt. eigenvalues --    0.95710   0.96072   0.96393   0.97122   0.97222
 Alpha virt. eigenvalues --    0.97672   0.98084   0.98458   0.98631   0.98949
 Alpha virt. eigenvalues --    0.99695   1.00133   1.00608   1.00734   1.00938
 Alpha virt. eigenvalues --    1.01689   1.01782   1.02274   1.02614   1.02910
 Alpha virt. eigenvalues --    1.03454   1.03942   1.04194   1.04717   1.04895
 Alpha virt. eigenvalues --    1.05161   1.05581   1.05731   1.06568   1.06920
 Alpha virt. eigenvalues --    1.07295   1.08334   1.08597   1.08833   1.09254
 Alpha virt. eigenvalues --    1.09611   1.09765   1.10745   1.11524   1.11760
 Alpha virt. eigenvalues --    1.13422   1.13484   1.13694   1.14697   1.15095
 Alpha virt. eigenvalues --    1.16059   1.16540   1.17199   1.17523   1.17796
 Alpha virt. eigenvalues --    1.18369   1.19106   1.19677   1.20595   1.21000
 Alpha virt. eigenvalues --    1.21512   1.22260   1.22685   1.22989   1.23247
 Alpha virt. eigenvalues --    1.23737   1.24211   1.25034   1.25875   1.26614
 Alpha virt. eigenvalues --    1.27181   1.28437   1.28965   1.30187   1.30849
 Alpha virt. eigenvalues --    1.31560   1.31892   1.32458   1.32825   1.33185
 Alpha virt. eigenvalues --    1.33583   1.34224   1.34933   1.35914   1.36767
 Alpha virt. eigenvalues --    1.36850   1.37726   1.38261   1.38505   1.38876
 Alpha virt. eigenvalues --    1.39278   1.39557   1.40701   1.40941   1.41641
 Alpha virt. eigenvalues --    1.43279   1.43582   1.43910   1.44802   1.45325
 Alpha virt. eigenvalues --    1.46345   1.46700   1.47011   1.47826   1.49513
 Alpha virt. eigenvalues --    1.49673   1.50659   1.50753   1.52131   1.52661
 Alpha virt. eigenvalues --    1.53723   1.54906   1.55282   1.55445   1.56759
 Alpha virt. eigenvalues --    1.57408   1.58018   1.58373   1.58845   1.59440
 Alpha virt. eigenvalues --    1.60181   1.60290   1.61300   1.61651   1.62733
 Alpha virt. eigenvalues --    1.63160   1.64908   1.65470   1.67128   1.67777
 Alpha virt. eigenvalues --    1.68013   1.68362   1.69703   1.69735   1.71162
 Alpha virt. eigenvalues --    1.71660   1.72356   1.72813   1.73680   1.75135
 Alpha virt. eigenvalues --    1.75619   1.75897   1.76435   1.77237   1.78367
 Alpha virt. eigenvalues --    1.78732   1.79052   1.79986   1.80836   1.81546
 Alpha virt. eigenvalues --    1.82584   1.83455   1.83896   1.84240   1.85334
 Alpha virt. eigenvalues --    1.86742   1.86877   1.88032   1.88387   1.89261
 Alpha virt. eigenvalues --    1.89606   1.89878   1.90765   1.91359   1.91775
 Alpha virt. eigenvalues --    1.92154   1.92892   1.93664   1.94386   1.95542
 Alpha virt. eigenvalues --    1.95923   1.96527   1.96865   1.97189   1.97488
 Alpha virt. eigenvalues --    1.98134   1.98186   1.98878   1.98908   1.99269
 Alpha virt. eigenvalues --    1.99630   2.00429   2.00614   2.00928   2.01262
 Alpha virt. eigenvalues --    2.01757   2.02485   2.03025   2.03742   2.04456
 Alpha virt. eigenvalues --    2.04558   2.04861   2.05129   2.05475   2.05727
 Alpha virt. eigenvalues --    2.06129   2.06333   2.07396   2.07961   2.08609
 Alpha virt. eigenvalues --    2.09708   2.09917   2.10887   2.11218   2.11301
 Alpha virt. eigenvalues --    2.11583   2.12107   2.12810   2.12952   2.13814
 Alpha virt. eigenvalues --    2.14363   2.15088   2.15504   2.16349   2.16997
 Alpha virt. eigenvalues --    2.17722   2.18763   2.19305   2.19864   2.20365
 Alpha virt. eigenvalues --    2.20957   2.21520   2.22680   2.23821   2.24248
 Alpha virt. eigenvalues --    2.25062   2.25249   2.25470   2.25661   2.26403
 Alpha virt. eigenvalues --    2.26721   2.27043   2.28088   2.28451   2.28925
 Alpha virt. eigenvalues --    2.29321   2.29584   2.30599   2.31124   2.31892
 Alpha virt. eigenvalues --    2.32214   2.32377   2.33042   2.33625   2.33941
 Alpha virt. eigenvalues --    2.34395   2.34907   2.35554   2.36164   2.36866
 Alpha virt. eigenvalues --    2.37287   2.38084   2.39547   2.40006   2.40383
 Alpha virt. eigenvalues --    2.40435   2.40825   2.41566   2.42791   2.43010
 Alpha virt. eigenvalues --    2.44051   2.44602   2.45106   2.45615   2.47524
 Alpha virt. eigenvalues --    2.48315   2.48770   2.49238   2.49547   2.49981
 Alpha virt. eigenvalues --    2.50106   2.50279   2.51227   2.51431   2.52001
 Alpha virt. eigenvalues --    2.52641   2.53465   2.54025   2.55003   2.57900
 Alpha virt. eigenvalues --    2.58161   2.58670   2.59533   2.59880   2.60567
 Alpha virt. eigenvalues --    2.60668   2.61483   2.63249   2.64206   2.64534
 Alpha virt. eigenvalues --    2.65263   2.66634   2.67292   2.67716   2.68222
 Alpha virt. eigenvalues --    2.68637   2.69281   2.69527   2.70964   2.71289
 Alpha virt. eigenvalues --    2.71586   2.71990   2.72505   2.73062   2.74002
 Alpha virt. eigenvalues --    2.74850   2.75369   2.76533   2.76621   2.77276
 Alpha virt. eigenvalues --    2.77675   2.79379   2.79695   2.80876   2.81160
 Alpha virt. eigenvalues --    2.82185   2.83164   2.83634   2.84479   2.84966
 Alpha virt. eigenvalues --    2.85382   2.85816   2.86744   2.86881   2.87289
 Alpha virt. eigenvalues --    2.88027   2.88686   2.88970   2.89271   2.89861
 Alpha virt. eigenvalues --    2.89991   2.90659   2.91187   2.92314   2.93322
 Alpha virt. eigenvalues --    2.93873   2.94597   2.95360   2.95617   2.96514
 Alpha virt. eigenvalues --    2.97617   2.97759   2.98212   2.98982   3.00217
 Alpha virt. eigenvalues --    3.00922   3.02926   3.03833   3.06841   3.07454
 Alpha virt. eigenvalues --    3.07834   3.08599   3.09795   3.10244   3.10512
 Alpha virt. eigenvalues --    3.11356   3.12572   3.12828   3.13239   3.13509
 Alpha virt. eigenvalues --    3.14079   3.16714   3.17166   3.18380   3.18449
 Alpha virt. eigenvalues --    3.20508   3.21191   3.22048   3.22253   3.23820
 Alpha virt. eigenvalues --    3.24735   3.25560   3.28008   3.29181   3.31045
 Alpha virt. eigenvalues --    3.34230   3.34490   3.36484   3.37840   3.38626
 Alpha virt. eigenvalues --    3.39938   3.50275   3.51387   3.55471   3.55583
 Alpha virt. eigenvalues --    3.56459   3.63097   3.63306   3.63375   3.63875
 Alpha virt. eigenvalues --    3.64250   3.64627   3.66575   3.66963   3.67481
 Alpha virt. eigenvalues --    3.67865   3.68100   3.68989   3.71807   3.73437
 Alpha virt. eigenvalues --    3.73685   3.73981   3.74066   3.74220   3.75367
 Alpha virt. eigenvalues --    3.75550   3.76585   3.76780   3.76864   3.77380
 Alpha virt. eigenvalues --    3.78775   3.79092   3.84175   3.91246   3.91324
 Alpha virt. eigenvalues --    4.24884   4.25077   5.74087   5.74575   5.79814
 Alpha virt. eigenvalues --    5.81724   5.84792   5.87818   5.89264   5.90919
 Alpha virt. eigenvalues --    5.98400   6.01467   6.05650   6.13020   6.15446
 Alpha virt. eigenvalues --    6.16814   6.34704   8.13789   8.14750   8.19924
 Alpha virt. eigenvalues --    8.21069   8.25235   8.29817   8.30781   8.42383
 Alpha virt. eigenvalues --    8.47228  26.25364  26.29313  26.44473  34.06145
 Alpha virt. eigenvalues --   34.06942  34.10852  34.11266  34.12030  34.16885
 Alpha virt. eigenvalues --   34.17362  34.27642  34.30628 147.34059 147.38318
 Alpha virt. eigenvalues --  147.47513 777.35147 777.41164 777.47747
  Beta  occ. eigenvalues -- -256.44841-256.44325-256.44189-101.61246-101.60942
  Beta  occ. eigenvalues -- -101.60691 -30.26143 -30.15994 -30.15866 -26.08790
  Beta  occ. eigenvalues --  -26.08678 -26.08642 -26.00207 -26.00175 -26.00088
  Beta  occ. eigenvalues --  -26.00086 -26.00036 -25.99961 -19.20362 -19.20340
  Beta  occ. eigenvalues --  -19.20321 -19.20095 -19.19607 -19.19473 -19.16549
  Beta  occ. eigenvalues --  -14.44190 -14.43781 -14.43596 -14.43572 -10.34361
  Beta  occ. eigenvalues --  -10.34313 -10.30275 -10.30086 -10.27229 -10.27189
  Beta  occ. eigenvalues --  -10.26893 -10.26495 -10.26403 -10.26138 -10.25746
  Beta  occ. eigenvalues --  -10.25375 -10.24826 -10.24789 -10.24743 -10.24327
  Beta  occ. eigenvalues --  -10.24130 -10.23976 -10.22603 -10.22275 -10.18552
  Beta  occ. eigenvalues --  -10.18538  -9.43491  -9.43138  -9.43022  -7.16325
  Beta  occ. eigenvalues --   -7.16117  -7.16073  -7.15975  -7.15974  -7.15769
  Beta  occ. eigenvalues --   -7.15726  -7.15702  -7.15620  -3.70118  -3.46316
  Beta  occ. eigenvalues --   -3.46207  -2.46301  -2.46096  -2.46007  -2.20764
  Beta  occ. eigenvalues --   -2.20739  -2.20668  -2.20658  -2.20637  -2.20559
  Beta  occ. eigenvalues --   -1.09408  -1.08817  -1.01294  -1.01195  -1.00041
  Beta  occ. eigenvalues --   -0.99867  -0.99787  -0.99538  -0.97231  -0.97158
  Beta  occ. eigenvalues --   -0.89647  -0.85772  -0.85747  -0.83675  -0.83647
  Beta  occ. eigenvalues --   -0.78601  -0.78554  -0.77765  -0.77326  -0.76927
  Beta  occ. eigenvalues --   -0.76777  -0.74291  -0.73732  -0.73227  -0.70168
  Beta  occ. eigenvalues --   -0.70047  -0.68895  -0.68881  -0.65886  -0.65675
  Beta  occ. eigenvalues --   -0.62946  -0.62604  -0.58361  -0.58335  -0.57592
  Beta  occ. eigenvalues --   -0.56270  -0.54447  -0.54387  -0.53605  -0.53468
  Beta  occ. eigenvalues --   -0.52780  -0.52620  -0.52096  -0.51636  -0.51283
  Beta  occ. eigenvalues --   -0.50595  -0.50257  -0.49685  -0.49144  -0.48847
  Beta  occ. eigenvalues --   -0.48472  -0.48346  -0.47412  -0.47353  -0.46630
  Beta  occ. eigenvalues --   -0.46546  -0.46461  -0.46054  -0.45929  -0.45532
  Beta  occ. eigenvalues --   -0.45457  -0.44916  -0.44776  -0.44583  -0.44241
  Beta  occ. eigenvalues --   -0.43695  -0.43162  -0.42791  -0.42555  -0.42329
  Beta  occ. eigenvalues --   -0.42146  -0.41084  -0.40817  -0.40438  -0.40322
  Beta  occ. eigenvalues --   -0.39949  -0.39678  -0.39290  -0.38920  -0.38674
  Beta  occ. eigenvalues --   -0.38306  -0.37192  -0.34592  -0.34429  -0.33121
  Beta  occ. eigenvalues --   -0.32784  -0.32611  -0.32300  -0.31773  -0.31685
  Beta  occ. eigenvalues --   -0.30685  -0.30504  -0.30236  -0.29968  -0.29611
  Beta  occ. eigenvalues --   -0.29010  -0.28753  -0.28540  -0.28404  -0.28069
  Beta  occ. eigenvalues --   -0.27527  -0.26917  -0.26590  -0.26108  -0.25698
  Beta  occ. eigenvalues --   -0.25547  -0.25422  -0.24996  -0.24938  -0.24468
  Beta  occ. eigenvalues --   -0.23600
  Beta virt. eigenvalues --   -0.08587  -0.07800  -0.07590  -0.07502  -0.06098
  Beta virt. eigenvalues --   -0.04328  -0.03972  -0.03797  -0.03144  -0.02819
  Beta virt. eigenvalues --   -0.02682  -0.02509  -0.02297   0.00102   0.01008
  Beta virt. eigenvalues --    0.01229   0.02833   0.04181   0.04330   0.08997
  Beta virt. eigenvalues --    0.10074   0.10769   0.11068   0.11609   0.12235
  Beta virt. eigenvalues --    0.12352   0.12528   0.12980   0.13446   0.13690
  Beta virt. eigenvalues --    0.14303   0.14642   0.15034   0.15262   0.15828
  Beta virt. eigenvalues --    0.15904   0.16367   0.16413   0.16539   0.16930
  Beta virt. eigenvalues --    0.17510   0.17818   0.18371   0.19017   0.19289
  Beta virt. eigenvalues --    0.19911   0.20088   0.20346   0.20554   0.20841
  Beta virt. eigenvalues --    0.20994   0.21032   0.21271   0.21686   0.22029
  Beta virt. eigenvalues --    0.22385   0.22532   0.22796   0.23010   0.23208
  Beta virt. eigenvalues --    0.23341   0.23650   0.23978   0.24205   0.24380
  Beta virt. eigenvalues --    0.24453   0.25272   0.25441   0.25761   0.26307
  Beta virt. eigenvalues --    0.26582   0.26830   0.26952   0.27579   0.27997
  Beta virt. eigenvalues --    0.28227   0.28963   0.29142   0.29553   0.30276
  Beta virt. eigenvalues --    0.30815   0.31402   0.31854   0.31900   0.32141
  Beta virt. eigenvalues --    0.32425   0.32508   0.32982   0.33419   0.34398
  Beta virt. eigenvalues --    0.34969   0.35204   0.36383   0.36605   0.36757
  Beta virt. eigenvalues --    0.37359   0.37865   0.38392   0.38717   0.39244
  Beta virt. eigenvalues --    0.39810   0.41427   0.42172   0.42751   0.43645
  Beta virt. eigenvalues --    0.44044   0.45033   0.45730   0.45961   0.46339
  Beta virt. eigenvalues --    0.48009   0.48279   0.48762   0.49210   0.50110
  Beta virt. eigenvalues --    0.50558   0.51015   0.51536   0.52174   0.52589
  Beta virt. eigenvalues --    0.53055   0.53260   0.54043   0.54325   0.54620
  Beta virt. eigenvalues --    0.55053   0.55299   0.56028   0.56265   0.56788
  Beta virt. eigenvalues --    0.57181   0.57313   0.57920   0.58300   0.58699
  Beta virt. eigenvalues --    0.58866   0.59567   0.60276   0.60478   0.61092
  Beta virt. eigenvalues --    0.61338   0.61446   0.61551   0.61932   0.62279
  Beta virt. eigenvalues --    0.62493   0.63137   0.63369   0.63442   0.63621
  Beta virt. eigenvalues --    0.64448   0.64606   0.65084   0.65745   0.66171
  Beta virt. eigenvalues --    0.66856   0.67034   0.67205   0.67723   0.68465
  Beta virt. eigenvalues --    0.68989   0.69936   0.70767   0.70981   0.71563
  Beta virt. eigenvalues --    0.72276   0.73200   0.73483   0.74349   0.74635
  Beta virt. eigenvalues --    0.75787   0.75969   0.76376   0.77438   0.77785
  Beta virt. eigenvalues --    0.78295   0.79535   0.80726   0.81327   0.82147
  Beta virt. eigenvalues --    0.82633   0.83465   0.84003   0.84471   0.85139
  Beta virt. eigenvalues --    0.85270   0.85681   0.86833   0.87485   0.87858
  Beta virt. eigenvalues --    0.88232   0.88499   0.89405   0.89597   0.89845
  Beta virt. eigenvalues --    0.90556   0.90891   0.91198   0.91309   0.91478
  Beta virt. eigenvalues --    0.92141   0.92470   0.92672   0.92852   0.93820
  Beta virt. eigenvalues --    0.94096   0.94590   0.94890   0.95190   0.95488
  Beta virt. eigenvalues --    0.95865   0.96162   0.96527   0.97268   0.97349
  Beta virt. eigenvalues --    0.97826   0.98182   0.98335   0.98706   0.99138
  Beta virt. eigenvalues --    1.00023   1.00290   1.00772   1.00887   1.01104
  Beta virt. eigenvalues --    1.01827   1.02191   1.02301   1.02887   1.02969
  Beta virt. eigenvalues --    1.03505   1.04166   1.04516   1.04920   1.05162
  Beta virt. eigenvalues --    1.05408   1.05743   1.06093   1.06894   1.07200
  Beta virt. eigenvalues --    1.07706   1.08708   1.09023   1.09089   1.09635
  Beta virt. eigenvalues --    1.09977   1.10141   1.11346   1.11788   1.11961
  Beta virt. eigenvalues --    1.13658   1.13899   1.14045   1.14673   1.14954
  Beta virt. eigenvalues --    1.16110   1.16900   1.17548   1.17913   1.18297
  Beta virt. eigenvalues --    1.18804   1.19358   1.20188   1.20705   1.21043
  Beta virt. eigenvalues --    1.21751   1.22778   1.23141   1.23513   1.23717
  Beta virt. eigenvalues --    1.24169   1.24364   1.25308   1.26268   1.27185
  Beta virt. eigenvalues --    1.27655   1.29140   1.29641   1.30711   1.31512
  Beta virt. eigenvalues --    1.31669   1.32212   1.32490   1.33164   1.33474
  Beta virt. eigenvalues --    1.34085   1.34707   1.35108   1.35906   1.36452
  Beta virt. eigenvalues --    1.37525   1.37924   1.38356   1.38708   1.39308
  Beta virt. eigenvalues --    1.39670   1.40112   1.40501   1.41539   1.42168
  Beta virt. eigenvalues --    1.43258   1.43480   1.44016   1.44686   1.45627
  Beta virt. eigenvalues --    1.45790   1.46159   1.47147   1.48587   1.49261
  Beta virt. eigenvalues --    1.50452   1.51730   1.52620   1.52899   1.53820
  Beta virt. eigenvalues --    1.54476   1.54766   1.55629   1.56175   1.57600
  Beta virt. eigenvalues --    1.58216   1.58419   1.59572   1.59981   1.60680
  Beta virt. eigenvalues --    1.61171   1.61510   1.61897   1.61972   1.63294
  Beta virt. eigenvalues --    1.63711   1.64856   1.65442   1.67472   1.68316
  Beta virt. eigenvalues --    1.68511   1.69218   1.70032   1.70422   1.71717
  Beta virt. eigenvalues --    1.72201   1.73101   1.73174   1.74804   1.75603
  Beta virt. eigenvalues --    1.76013   1.76608   1.77059   1.77461   1.78883
  Beta virt. eigenvalues --    1.79194   1.80222   1.80574   1.81275   1.82050
  Beta virt. eigenvalues --    1.83342   1.83770   1.84274   1.85331   1.86212
  Beta virt. eigenvalues --    1.86984   1.87494   1.88688   1.88830   1.89540
  Beta virt. eigenvalues --    1.89962   1.90421   1.91085   1.91883   1.92238
  Beta virt. eigenvalues --    1.92638   1.93560   1.94524   1.95129   1.95954
  Beta virt. eigenvalues --    1.96188   1.96841   1.97194   1.98080   1.98352
  Beta virt. eigenvalues --    1.98509   1.98925   1.99268   1.99472   1.99699
  Beta virt. eigenvalues --    2.00180   2.00764   2.01053   2.01285   2.01965
  Beta virt. eigenvalues --    2.02386   2.02725   2.03202   2.03835   2.04184
  Beta virt. eigenvalues --    2.04407   2.04945   2.05076   2.05561   2.05862
  Beta virt. eigenvalues --    2.06809   2.07050   2.07694   2.08186   2.09043
  Beta virt. eigenvalues --    2.10000   2.10166   2.11036   2.11248   2.11416
  Beta virt. eigenvalues --    2.11983   2.12430   2.12982   2.13366   2.14547
  Beta virt. eigenvalues --    2.14782   2.15489   2.15594   2.16904   2.17240
  Beta virt. eigenvalues --    2.18037   2.19179   2.19716   2.20611   2.21344
  Beta virt. eigenvalues --    2.21946   2.22431   2.23191   2.24453   2.24685
  Beta virt. eigenvalues --    2.25059   2.25348   2.25569   2.25838   2.26639
  Beta virt. eigenvalues --    2.26927   2.27285   2.28532   2.29149   2.29211
  Beta virt. eigenvalues --    2.29622   2.30397   2.30749   2.31847   2.32071
  Beta virt. eigenvalues --    2.32321   2.32451   2.33302   2.33812   2.34052
  Beta virt. eigenvalues --    2.34539   2.35152   2.35694   2.36349   2.37438
  Beta virt. eigenvalues --    2.37976   2.38276   2.39840   2.40143   2.40559
  Beta virt. eigenvalues --    2.41032   2.41604   2.41866   2.42699   2.43553
  Beta virt. eigenvalues --    2.44575   2.44842   2.45107   2.45747   2.47935
  Beta virt. eigenvalues --    2.48144   2.49075   2.49550   2.50016   2.50047
  Beta virt. eigenvalues --    2.50489   2.50917   2.51704   2.51992   2.52566
  Beta virt. eigenvalues --    2.52994   2.53701   2.54747   2.55354   2.56370
  Beta virt. eigenvalues --    2.58460   2.58824   2.60024   2.60570   2.60761
  Beta virt. eigenvalues --    2.61216   2.62649   2.63750   2.64210   2.64896
  Beta virt. eigenvalues --    2.65952   2.66949   2.67390   2.67847   2.68516
  Beta virt. eigenvalues --    2.68822   2.69444   2.69849   2.71480   2.71608
  Beta virt. eigenvalues --    2.71969   2.72053   2.72655   2.73059   2.74199
  Beta virt. eigenvalues --    2.75085   2.75759   2.76632   2.76911   2.77764
  Beta virt. eigenvalues --    2.77994   2.79208   2.80673   2.81550   2.82063
  Beta virt. eigenvalues --    2.82330   2.83163   2.84203   2.84900   2.85866
  Beta virt. eigenvalues --    2.86009   2.86341   2.87035   2.87101   2.87920
  Beta virt. eigenvalues --    2.89010   2.89555   2.90049   2.90641   2.91427
  Beta virt. eigenvalues --    2.91856   2.92232   2.94780   2.95043   2.95229
  Beta virt. eigenvalues --    2.96244   2.97127   2.97765   2.98149   2.98886
  Beta virt. eigenvalues --    2.99395   3.00032   3.01313   3.01449   3.02242
  Beta virt. eigenvalues --    3.02598   3.03434   3.04443   3.05285   3.07313
  Beta virt. eigenvalues --    3.08364   3.09701   3.10094   3.10601   3.11462
  Beta virt. eigenvalues --    3.12784   3.12941   3.13327   3.13589   3.14524
  Beta virt. eigenvalues --    3.16019   3.17198   3.18002   3.18881   3.21435
  Beta virt. eigenvalues --    3.21693   3.22308   3.23365   3.23608   3.24683
  Beta virt. eigenvalues --    3.25009   3.26719   3.28600   3.31229   3.32685
  Beta virt. eigenvalues --    3.34308   3.34613   3.35690   3.36421   3.36779
  Beta virt. eigenvalues --    3.39407   3.50627   3.51564   3.55532   3.55660
  Beta virt. eigenvalues --    3.63234   3.63398   3.63502   3.63687   3.63983
  Beta virt. eigenvalues --    3.64288   3.64640   3.66913   3.67055   3.67728
  Beta virt. eigenvalues --    3.68538   3.69932   3.70442   3.71290   3.73598
  Beta virt. eigenvalues --    3.73899   3.74058   3.74197   3.75314   3.75461
  Beta virt. eigenvalues --    3.75940   3.76632   3.76744   3.76870   3.78730
  Beta virt. eigenvalues --    3.79093   3.81257   3.83845   3.91302   3.91413
  Beta virt. eigenvalues --    4.24921   4.25113   5.73484   5.74632   5.81484
  Beta virt. eigenvalues --    5.89557   5.90086   5.94931   5.97274   6.01034
  Beta virt. eigenvalues --    6.01821   6.03492   6.16415   6.18894   6.20941
  Beta virt. eigenvalues --    6.27605   6.29209   8.10681   8.17580   8.26478
  Beta virt. eigenvalues --    8.28803   8.29911   8.34732   8.37371   8.47728
  Beta virt. eigenvalues --    8.55184  26.25120  26.40537  26.44835  34.02822
  Beta virt. eigenvalues --   34.09389  34.14198  34.15562  34.16536  34.20386
  Beta virt. eigenvalues --   34.21894  34.31314  34.35222 147.33949 147.43595
  Beta virt. eigenvalues --  147.47691 777.35130 777.42111 777.47782
          Condensed to atoms (all electrons):
          Atomic-Atomic Spin Densities.
 Mulliken charges and spin densities:
               1          2
     1  Fe   0.994211   4.221608
     2  Fe   1.002185   4.221958
     3  Fe   0.805190  -4.251900
     4  O   -0.684748   0.011528
     5  O   -0.690704   0.017871
     6  O   -0.873216   0.341942
     7  Cl  -0.320560   0.193738
     8  Cl  -0.337114   0.186174
     9  Cl  -0.292837  -0.228764
    10  O   -0.537379   0.070828
    11  O   -0.546576   0.072138
[...]
              Bcc     0.3636    19.030     6.790     6.348  0.6664 -0.6297  0.3993
 
              Baa    -0.2983   -15.611    -5.570    -5.207 -0.6229  0.7813 -0.0399
     9 Cl(35) Bbb     0.0852     4.460     1.591     1.488  0.6862  0.5212 -0.5074
              Bcc     0.2131    11.151     3.979     3.720  0.3757  0.3434  0.8608
 
              Baa    -0.2346    16.976     6.058     5.663 -0.1626  0.9859 -0.0398
    10 O(17)  Bbb    -0.1503    10.878     3.881     3.628  0.8286  0.1145 -0.5480
              Bcc     0.3849   -27.854    -9.939    -9.291  0.5357  0.1221  0.8356
 
              Baa    -0.2360    17.078     6.094     5.697  0.9492 -0.3139 -0.0237
    11 O(17)  Bbb    -0.1517    10.974     3.916     3.661  0.2548  0.8102 -0.5279
              Bcc     0.3877   -28.052   -10.010    -9.357  0.1848  0.4950  0.8490
 
              Baa    -0.3529    25.537     9.112     8.518  0.3785  0.1972  0.9044
    12 O(17)  Bbb     0.1670   -12.085    -4.312    -4.031  0.9067 -0.2756 -0.3194
              Bcc     0.1859   -13.452    -4.800    -4.487  0.1863  0.9408 -0.2831
 
              Baa    -0.3521    25.480     9.092     8.499  0.2340  0.3424  0.9099
    13 O(17)  Bbb     0.1672   -12.101    -4.318    -4.036  0.2344  0.8885 -0.3946
              Bcc     0.1849   -13.379    -4.774    -4.463  0.9436 -0.3056 -0.1276
 
              Baa    -0.1448    -5.583    -1.992    -1.862 -0.4025  0.9120  0.0788
    14 N(14)  Bbb    -0.1350    -5.205    -1.857    -1.736  0.4535  0.1239  0.8826
              Bcc     0.2797    10.788     3.850     3.599  0.7952  0.3910 -0.4634
 
              Baa    -0.1346    -5.191    -1.852    -1.732  0.3145  0.9469  0.0673
    15 N(14)  Bbb    -0.1185    -4.571    -1.631    -1.525  0.9302 -0.2933 -0.2205
              Bcc     0.2531     9.763     3.484     3.256  0.1891 -0.1320  0.9731
 
              Baa    -0.1345    -5.188    -1.851    -1.730  0.9667  0.2133  0.1413
    16 N(14)  Bbb    -0.1182    -4.560    -1.627    -1.521 -0.1464  0.9141 -0.3783
              Bcc     0.2527     9.748     3.478     3.252 -0.2098  0.3450  0.9149
 
              Baa    -0.1409    -5.436    -1.940    -1.813  0.7859 -0.6020  0.1413
    17 N(14)  Bbb    -0.1326    -5.112    -1.824    -1.705  0.1839  0.4457  0.8761
              Bcc     0.2735    10.548     3.764     3.518  0.5904  0.6625 -0.4610
 
              Baa    -0.0560    -7.512    -2.680    -2.506  0.5964  0.7607 -0.2562
    18 C(13)  Bbb    -0.0071    -0.955    -0.341    -0.319  0.2935  0.0905  0.9517
              Bcc     0.0631     8.467     3.021     2.824  0.7472 -0.6427 -0.1693
 
              Baa    -0.0398    -5.338    -1.905    -1.781  0.7104 -0.6700  0.2155
    19 C(13)  Bbb    -0.0042    -0.570    -0.203    -0.190  0.6777  0.5685 -0.4664
              Bcc     0.0440     5.908     2.108     1.971  0.1900  0.4774  0.8579
 
              Baa    -0.0451   -24.060    -8.585    -8.026 -0.6494  0.7535 -0.1022
    20 H(1)   Bbb     0.0092     4.924     1.757     1.643  0.7442  0.6020 -0.2894
              Bcc     0.0359    19.136     6.828     6.383  0.1566  0.2640  0.9517
 
              Baa    -0.0750   -10.069    -3.593    -3.359  0.2608  0.8303  0.4926
    21 C(13)  Bbb    -0.0052    -0.701    -0.250    -0.234  0.8541  0.0394 -0.5187
              Bcc     0.0803    10.770     3.843     3.592  0.4500 -0.5560  0.6988
 
              Baa    -0.0318    -4.263    -1.521    -1.422  0.0791  0.9476 -0.3096
    22 C(13)  Bbb    -0.0183    -2.455    -0.876    -0.819  0.4671  0.2391  0.8513
              Bcc     0.0501     6.718     2.397     2.241  0.8807 -0.2120 -0.4237
 
              Baa    -0.0229   -12.231    -4.364    -4.080 -0.0536  0.9159 -0.3979
    23 H(1)   Bbb    -0.0122    -6.504    -2.321    -2.169  0.6920  0.3213  0.6464
              Bcc     0.0351    18.735     6.685     6.249  0.7199 -0.2406 -0.6510
 
              Baa    -0.0142    -7.595    -2.710    -2.533  0.0209  0.9548 -0.2965
    24 H(1)   Bbb    -0.0087    -4.664    -1.664    -1.556  0.3722  0.2678  0.8887
              Bcc     0.0230    12.259     4.374     4.089  0.9279 -0.1289 -0.3498
 
              Baa    -0.0272    -3.645    -1.301    -1.216  0.6653 -0.5621  0.4914
    25 C(13)  Bbb    -0.0179    -2.404    -0.858    -0.802  0.2350  0.7824  0.5767
              Bcc     0.0451     6.050     2.159     2.018  0.7087  0.2682 -0.6526
 
              Baa    -0.0183    -9.740    -3.476    -3.249  0.4306  0.1294  0.8932
    26 H(1)   Bbb    -0.0166    -8.860    -3.161    -2.955 -0.1819  0.9818 -0.0545
              Bcc     0.0349    18.600     6.637     6.204  0.8840  0.1390 -0.4463
 
              Baa    -0.0128    -6.806    -2.429    -2.270  0.7707 -0.4817  0.4172
    27 H(1)   Bbb    -0.0099    -5.291    -1.888    -1.765  0.1530  0.7754  0.6127
              Bcc     0.0227    12.097     4.317     4.035 -0.6186 -0.4084  0.6712
 
              Baa    -0.0571    -7.662    -2.734    -2.556  0.8906  0.3987 -0.2190
    28 C(13)  Bbb    -0.0077    -1.038    -0.370    -0.346  0.0870  0.3233  0.9423
              Bcc     0.0648     8.700     3.104     2.902 -0.4465  0.8582 -0.2532
 
              Baa    -0.0353    -4.734    -1.689    -1.579 -0.5541  0.7547 -0.3512
    29 C(13)  Bbb    -0.0153    -2.055    -0.733    -0.686  0.6301  0.6560  0.4156
              Bcc     0.0506     6.789     2.423     2.265 -0.5441 -0.0090  0.8390
 
              Baa    -0.0418    -5.616    -2.004    -1.873 -0.5485  0.8342  0.0571
    30 C(13)  Bbb    -0.0034    -0.453    -0.162    -0.151  0.7285  0.5102 -0.4571
              Bcc     0.0452     6.068     2.165     2.024  0.4105  0.2092  0.8876
 
              Baa    -0.0460   -24.537    -8.755    -8.185 -0.6116  0.7912  0.0044
    31 H(1)   Bbb     0.0102     5.434     1.939     1.812  0.7625  0.5908 -0.2637
              Bcc     0.0358    19.103     6.816     6.372  0.2112  0.1579  0.9646
 
              Baa    -0.0317    -4.260    -1.520    -1.421  0.9612 -0.1522 -0.2301
    32 C(13)  Bbb    -0.0187    -2.507    -0.895    -0.836  0.2750  0.4628  0.8427
              Bcc     0.0504     6.767     2.415     2.257  0.0218  0.8733 -0.4868
 
              Baa    -0.0233   -12.412    -4.429    -4.140  0.9051 -0.2797 -0.3201
    33 H(1)   Bbb    -0.0127    -6.767    -2.415    -2.257  0.4238  0.6523  0.6284
              Bcc     0.0359    19.178     6.843     6.397  0.0331 -0.7044  0.7090
 
              Baa    -0.0141    -7.534    -2.688    -2.513  0.9500 -0.2160 -0.2254
    34 H(1)   Bbb    -0.0089    -4.730    -1.688    -1.578  0.2932  0.3692  0.8819
              Bcc     0.0230    12.264     4.376     4.091  0.1073  0.9039 -0.4141
 
              Baa    -0.0122    -1.633    -0.583    -0.545  0.8190 -0.5340  0.2102
    35 C(13)  Bbb    -0.0073    -0.981    -0.350    -0.327  0.5709  0.7951 -0.2044
              Bcc     0.0195     2.614     0.933     0.872 -0.0580  0.2874  0.9561
 
              Baa    -0.0088    -4.683    -1.671    -1.562 -0.6683  0.7136 -0.2100
    36 H(1)   Bbb    -0.0030    -1.584    -0.565    -0.528  0.7437  0.6352 -0.2082
              Bcc     0.0117     6.267     2.236     2.091  0.0152  0.2954  0.9553
 
              Baa    -0.0275    -3.688    -1.316    -1.230 -0.4749  0.8017  0.3629
    37 C(13)  Bbb    -0.0187    -2.503    -0.893    -0.835  0.7567  0.1614  0.6335
              Bcc     0.0461     6.191     2.209     2.065 -0.4493 -0.5755  0.6834
 
              Baa    -0.0198   -10.572    -3.773    -3.527  0.2149  0.4574  0.8629
    38 H(1)   Bbb    -0.0178    -9.524    -3.398    -3.177  0.9192 -0.3932 -0.0205
              Bcc     0.0377    20.096     7.171     6.703  0.3299  0.7976 -0.5050
 
              Baa    -0.0127    -6.801    -2.427    -2.268 -0.3325  0.8776  0.3453
    39 H(1)   Bbb    -0.0099    -5.286    -1.886    -1.763  0.7562  0.0293  0.6537
              Bcc     0.0227    12.086     4.313     4.032 -0.5636 -0.4785  0.6734
 
              Baa    -0.0362    -4.863    -1.735    -1.622 -0.5842  0.7827  0.2149
    40 C(13)  Bbb    -0.0152    -2.036    -0.727    -0.679  0.7847  0.4770  0.3959
              Bcc     0.0514     6.899     2.462     2.301 -0.2073 -0.3999  0.8928
 
              Baa    -0.0782   -10.492    -3.744    -3.500  0.8261  0.0415  0.5621
    41 C(13)  Bbb    -0.0016    -0.210    -0.075    -0.070  0.2847  0.8300 -0.4796
              Bcc     0.0798    10.702     3.819     3.570 -0.4864  0.5562  0.6739
 
              Baa    -0.0247    -3.320    -1.185    -1.107  0.7251 -0.6823 -0.0932
    42 C(13)  Bbb    -0.0196    -2.625    -0.937    -0.876  0.0350 -0.0987  0.9945
              Bcc     0.0443     5.946     2.122     1.983  0.6877  0.7244  0.0477
 
              Baa    -0.0118    -6.277    -2.240    -2.094  0.7329 -0.6768 -0.0694
    43 H(1)   Bbb    -0.0090    -4.824    -1.721    -1.609  0.1114  0.0188  0.9936
              Bcc     0.0208    11.101     3.961     3.703  0.6712  0.7359 -0.0892
 
              Baa    -0.0214   -11.413    -4.072    -3.807 -0.5374  0.7266  0.4281
    44 H(1)   Bbb    -0.0182    -9.684    -3.456    -3.230  0.0865 -0.4575  0.8850
              Bcc     0.0395    21.097     7.528     7.037  0.8389  0.5127  0.1830
 
              Baa    -0.0222   -11.856    -4.230    -3.955  0.8855 -0.4637  0.0288
    45 H(1)   Bbb    -0.0152    -8.119    -2.897    -2.708 -0.1186 -0.1656  0.9790
              Bcc     0.0374    19.975     7.127     6.663  0.4492  0.8704  0.2016
 
              Baa    -0.0243    -3.258    -1.163    -1.087 -0.5034  0.8395 -0.2044
    46 C(13)  Bbb    -0.0191    -2.569    -0.917    -0.857 -0.1419  0.1530  0.9780
              Bcc     0.0434     5.827     2.079     1.944  0.8523  0.5214  0.0421
 
              Baa    -0.0117    -6.224    -2.221    -2.076 -0.4971  0.8497 -0.1758
    47 H(1)   Bbb    -0.0090    -4.781    -1.706    -1.595 -0.0071  0.1987  0.9800
              Bcc     0.0206    11.005     3.927     3.671  0.8677  0.4884 -0.0927
 
              Baa    -0.0212   -11.293    -4.030    -3.767 -0.5532  0.6284 -0.5469
    48 H(1)   Bbb    -0.0180    -9.594    -3.424    -3.200 -0.4875  0.2881  0.8242
              Bcc     0.0391    20.888     7.453     6.967  0.6755  0.7226  0.1470
 
              Baa    -0.0218   -11.620    -4.146    -3.876 -0.2672  0.9620 -0.0567
    49 H(1)   Bbb    -0.0149    -7.932    -2.830    -2.646 -0.2310 -0.0069  0.9729
              Bcc     0.0366    19.552     6.977     6.522  0.9355  0.2731  0.2241
 
              Baa    -0.0098    -1.313    -0.468    -0.438 -0.6566  0.6770 -0.3325
    50 C(13)  Bbb    -0.0035    -0.465    -0.166    -0.155  0.7125  0.7014  0.0211
              Bcc     0.0132     1.777     0.634     0.593 -0.2475  0.2230  0.9429
 
              Baa    -0.0045    -2.421    -0.864    -0.807  0.7001 -0.6387  0.3192
    51 H(1)   Bbb    -0.0027    -1.420    -0.507    -0.474  0.6672  0.7444  0.0263
              Bcc     0.0072     3.841     1.370     1.281 -0.2544  0.1945  0.9473
 
              Baa    -0.0101    -1.352    -0.482    -0.451  0.9267  0.0324  0.3745
    52 C(13)  Bbb    -0.0085    -1.146    -0.409    -0.382  0.0111  0.9935 -0.1135
              Bcc     0.0186     2.497     0.891     0.833 -0.3757  0.1094  0.9203
 
              Baa    -0.0063    -3.339    -1.191    -1.114  0.6906 -0.6073  0.3926
    53 H(1)   Bbb    -0.0047    -2.495    -0.890    -0.832  0.5106  0.7940  0.3300
              Bcc     0.0109     5.834     2.082     1.946 -0.5122 -0.0274  0.8584
 
              Baa    -0.0101    -1.362    -0.486    -0.454  0.2717  0.9264  0.2606
    54 C(13)  Bbb    -0.0081    -1.083    -0.386    -0.361  0.9601 -0.2798 -0.0064
              Bcc     0.0182     2.444     0.872     0.815 -0.0670 -0.2519  0.9654
 
              Baa    -0.0063    -3.377    -1.205    -1.127 -0.4588  0.8602  0.2226
    55 H(1)   Bbb    -0.0046    -2.459    -0.877    -0.820  0.8591  0.3656  0.3583
              Bcc     0.0109     5.836     2.082     1.947 -0.2268 -0.3556  0.9067
 
              Baa    -0.0121    -1.621    -0.578    -0.541 -0.3759  0.9264  0.0207
    56 C(13)  Bbb    -0.0072    -0.963    -0.344    -0.321  0.9133  0.3742 -0.1608
              Bcc     0.0193     2.583     0.922     0.862  0.1567  0.0416  0.9868
 
              Baa    -0.0090    -4.782    -1.706    -1.595 -0.5885  0.8083  0.0175
    57 H(1)   Bbb    -0.0027    -1.460    -0.521    -0.487  0.7889  0.5788 -0.2065
              Bcc     0.0117     6.242     2.227     2.082  0.1770  0.1077  0.9783
 
              Baa    -0.0209    -2.810    -1.003    -0.937  0.1860  0.8632  0.4693
    58 C(13)  Bbb    -0.0016    -0.221    -0.079    -0.074  0.8449  0.1033 -0.5249
              Bcc     0.0226     3.031     1.082     1.011  0.5016 -0.4941  0.7101
 
              Baa    -0.0123    -6.542    -2.334    -2.182  0.2109  0.6487  0.7312
    59 H(1)   Bbb     0.0014     0.761     0.271     0.254  0.8442  0.2562 -0.4708
              Bcc     0.0108     5.782     2.063     1.929 -0.4928  0.7166 -0.4936
 
              Baa    -0.0118    -6.294    -2.246    -2.100  0.1322  0.9194  0.3705
    60 H(1)   Bbb    -0.0033    -1.761    -0.628    -0.587  0.7146  0.1706 -0.6784
              Bcc     0.0151     8.055     2.874     2.687  0.6869 -0.3545  0.6344
 
              Baa    -0.0116    -6.174    -2.203    -2.060 -0.1304  0.9097  0.3942
    61 H(1)   Bbb    -0.0026    -1.382    -0.493    -0.461  0.8664  0.2978 -0.4007
              Bcc     0.0142     7.557     2.696     2.521  0.4820 -0.2893  0.8270
 
              Baa    -0.0108    -1.443    -0.515    -0.481 -0.5766  0.8051  0.1393
    62 C(13)  Bbb    -0.0028    -0.378    -0.135    -0.126  0.8148  0.5791  0.0261
              Bcc     0.0136     1.821     0.650     0.608  0.0597 -0.1286  0.9899
 
              Baa    -0.0046    -2.441    -0.871    -0.814 -0.5200  0.8474  0.1074
    63 H(1)   Bbb    -0.0024    -1.302    -0.465    -0.434  0.8541  0.5180  0.0476
              Bcc     0.0070     3.743     1.336     1.249  0.0153 -0.1165  0.9931
 
              Baa    -0.0210    -2.815    -1.005    -0.939  0.8180 -0.0467  0.5733
    64 C(13)  Bbb    -0.0020    -0.275    -0.098    -0.092  0.3662  0.8108 -0.4565
              Bcc     0.0230     3.090     1.103     1.031 -0.4436  0.5834  0.6804
 
              Baa    -0.0119    -6.363    -2.271    -2.123  0.9028 -0.2734  0.3320
    65 H(1)   Bbb    -0.0041    -2.197    -0.784    -0.733  0.4226  0.7070 -0.5670
              Bcc     0.0160     8.560     3.055     2.855 -0.0797  0.6523  0.7538
 
              Baa    -0.0131    -7.005    -2.500    -2.337  0.7020 -0.2639  0.6615
    66 H(1)   Bbb     0.0003     0.176     0.063     0.059  0.5975  0.7237 -0.3454
              Bcc     0.0128     6.829     2.437     2.278 -0.3876  0.6377  0.6656
 
              Baa    -0.0125    -6.678    -2.383    -2.227  0.7511  0.1547  0.6418
    67 H(1)   Bbb     0.0006     0.337     0.120     0.112  0.3747  0.7005 -0.6074
              Bcc     0.0119     6.341     2.263     2.115 -0.5435  0.6967  0.4682
 
              Baa    -0.0420   -22.423    -8.001    -7.479  0.5696  0.8177 -0.0829
    68 H(1)   Bbb    -0.0068    -3.614    -1.289    -1.205 -0.0394  0.1279  0.9910
              Bcc     0.0488    26.036     9.290     8.685  0.8210 -0.5612  0.1051
 
              Baa    -0.0311   -16.619    -5.930    -5.544  0.6754  0.5497 -0.4915
    69 H(1)   Bbb     0.0027     1.464     0.522     0.488  0.4681  0.1954  0.8618
              Bcc     0.0284    15.155     5.408     5.055 -0.5698  0.8121  0.1253
 
              Baa    -0.0417   -22.256    -7.942    -7.424  0.9323  0.3582 -0.0505
    70 H(1)   Bbb    -0.0078    -4.174    -1.490    -1.392  0.0570 -0.0075  0.9983
              Bcc     0.0495    26.431     9.431     8.816 -0.3572  0.9336  0.0274
 
              Baa    -0.0303   -16.162    -5.767    -5.391  0.7190  0.5103 -0.4718
    71 H(1)   Bbb     0.0021     1.131     0.404     0.377  0.2361  0.4592  0.8564
              Bcc     0.0282    15.031     5.363     5.014 -0.6536  0.7272 -0.2097
 

 ---------------------------------------------------------------------------------

 No NMR shielding tensors so no spin-rotation constants.
 Leave Link  601 at Mon Sep  8 01:31:38 2025, MaxMem=  3221225472 cpu:               4.7 elap:               1.0
 (Enter /mnt/research/peralta/software/gaussian/g16B.03//g16/l9999.exe)

 Test job not archived.
 1\1\GINC-AMR-195\SP\UPBEh1PBE\Gen\C22H32Cl3Fe3N4O7(6)\K0102371\08-Sep-
 2025\0\\#p nosymm test PBEh1PBE/Gen geom=CheckPoint guess=read scf(con
 ver=8) iop(4/151=1)\\SCF calculation flipping: 3 atoms Fe3 PBEh1PBE\\0
 ,6\Fe,0,-0.439941,0.175786,10.830498\Fe,0,2.377917,2.399541,10.118445\
 Fe,0,-0.538104,3.149791,10.365879\O,0,-1.572873,1.774281,11.349062\O,0
 ,1.08689,3.818712,9.430202\O,0,0.793712,1.502268,10.43966\Cl,0,0.50073
 5,-1.841989,10.28472\Cl,0,4.061527,0.979902,10.875756\Cl,0,-2.045629,4
 .839339,10.360254\O,0,-1.452491,0.232414,9.035491\O,0,2.440929,3.45085
 2,11.884644\O,0,-1.284914,2.433222,8.599011\O,0,0.24124,3.808827,12.13
 259\N,0,-2.253102,-0.827907,11.766118\N,0,0.10104,-0.092492,12.908186\
 N,0,2.703519,1.654227,8.116747\N,0,3.819427,3.867722,9.183296\C,0,-2.9
 55108,1.513169,11.468528\C,0,1.922604,0.721133,7.531337\H,0,1.128478,0
 .437129,7.968628\C,0,-1.687659,1.271967,8.338006\C,0,-3.087223,0.25939
 2,12.319401\H,0,-2.802896,0.456458,13.246988\H,0,-4.034362,-0.027837,1
 2.342157\C,0,4.627274,3.116901,8.20907\H,0,5.378447,2.674569,8.678303\
 H,0,5.009005,3.745668,7.546489\C,0,1.677133,5.095469,9.271916\C,0,3.81
 0475,2.083276,7.497515\C,0,1.103427,0.564236,13.520041\H,0,1.634913,1.
 166721,13.013083\C,0,2.971267,4.879776,8.487491\H,0,2.75916,4.5659,7.5
 72834\H,0,3.46413,5.735248,8.414351\C,0,2.257565,0.169685,6.304436\H,0
 ,1.699119,-0.486592,5.904513\C,0,-1.710298,-1.68609,12.829235\H,0,-1.3
 3149,-2.507959,12.42783\H,0,-2.440538,-1.952889,13.442158\C,0,-0.63729
 ,-0.968131,13.609544\C,0,1.423149,3.900651,12.509159\C,0,4.706428,4.52
 9322,10.170509\H,0,5.356019,5.092509,9.700136\H,0,5.181144,3.848175,10
 .691167\H,0,4.168271,5.084513,10.772652\C,0,-3.031206,-1.653331,10.818
 963\H,0,-3.741193,-2.124426,11.303107\H,0,-2.438543,-2.306316,10.39146
 9\H,0,-3.429888,-1.07663,10.134224\C,0,3.411853,0.584586,5.669696\H,0,
 3.66315,0.203928,4.836354\C,0,4.193193,1.551236,6.25223\H,0,4.982098,1
 .857108,5.820293\C,0,-0.385618,-1.202707,14.952564\H,0,-0.912282,-1.82
 9714,15.434215\C,0,1.384555,0.391257,14.859415\H,0,2.079591,0.88841,15
 .274448\C,0,-2.522715,1.082034,7.095939\H,0,-2.709611,1.954824,6.69134
 4\H,0,-3.366887,0.644654,7.333589\H,0,-2.034096,0.523252,6.456087\C,0,
 0.63813,-0.518171,15.58971\H,0,0.823765,-0.670041,16.508924\C,0,1.6612
 99,4.597152,13.806167\H,0,2.625524,4.686374,13.95682\H,0,1.263686,4.07
 5977,14.534654\H,0,1.251161,5.486795,13.779337\H,0,-3.3929,1.348043,10
 .485171\H,0,-3.455444,2.350544,11.952664\H,0,1.895308,5.532581,10.2451
 86\H,0,1.007782,5.753813,8.720125\\Version=ES64L-G16RevB.01\HF=-6772.2
 985586\S2=13.712752\S2-1=0.\S2A=21.966766\RMSD=8.392e-09\Dipole=0.5650
 849,-0.4376208,0.0549253\Quadrupole=-3.5159083,-25.9625178,29.4784262,
 38.4835871,-8.9534544,-18.447563\PG=C01 [X(C22H32Cl3Fe3N4O7)]\\@


 CHARLIE BROWN.."I CAN'T GET THAT STUPID KITE IN THE
 AIR... I CAN'T... I C A N N O T..."
 LUCY.."OH COME NOW CHARLIE BROWN...THAT'S NO WAY TO TALK...
 THE TROUBLE WITH YOU IS YOU DON'T BELIEVE IN YOURSELF... YOU
 DON'T BELIEVE IN YOUR OWN ABILITIES...  YOU'VE GOT TO SAY TO
 YOURSELF...'I BELIEVE I CAN FLY THIS KITE.'... GO AHEAD SAY
 IT...."
 CHARLIE BROWN.."I BELIEVE THAT I CAN FLY THIS STUPID
 KITE.....I BELIEVE THAT I CAN FLY THIS KITE........
 I  A C T U A L L Y  B E L I E V E  T H A T  I  C A N ******"
 LUCY.."I'LL BET YOU TEN-TO-ONE YOU'RE WRONG......."    SCHULZ
 Job cpu time:       0 days  6 hours 45 minutes 58.6 seconds.
 Elapsed time:       0 days  2 hours 34 minutes 54.3 seconds.
 File lengths (MBytes):  RWF=    896 Int=      0 D2E=      0 Chk=     52 Scr=     32
 Normal termination of Gaussian 16 at Mon Sep  8 01:31:38 2025.
Finished at Mon Sep 8 01:31:38 AM EDT 2025
