GAUSS_SCRDIR is /mnt/scratch/k0102371/60903736
 Entering Gaussian System, Link 0=g16
 AtFile(1): basis.bas
            Fe 0
            6-311+g**
            ****
            C H O N Cl 0
            6-31g**
            ****
 Initial command:
 /mnt/research/peralta/software/gaussian/g16B.03//g16/l1.exe "/mnt/scratch/k0102371/60903736/Gau-1074317.inp" -scrdir="/mnt/scratch/k0102371/60903736/"
 Default linda workers: amr-127,amr-137,amr-200,amr-206,amr-213,amr-227
 Entering Link 1 = /mnt/research/peralta/software/gaussian/g16B.03//g16/l1.exe PID=   1074319.
  
 Copyright (c) 1988-2017, Gaussian, Inc.  All Rights Reserved.
  
 This is part of the Gaussian(R) 16 program.  It is based on
 the Gaussian(R) 09 system (copyright 2009, Gaussian, Inc.),
 the Gaussian(R) 03 system (copyright 2003, Gaussian, Inc.),
 the Gaussian(R) 98 system (copyright 1998, Gaussian, Inc.),
 the Gaussian(R) 94 system (copyright 1995, Gaussian, Inc.),
 the Gaussian 92(TM) system (copyright 1992, Gaussian, Inc.),
 the Gaussian 90(TM) system (copyright 1990, Gaussian, Inc.),
 the Gaussian 88(TM) system (copyright 1988, Gaussian, Inc.),
 the Gaussian 86(TM) system (copyright 1986, Carnegie Mellon
 University), and the Gaussian 82(TM) system (copyright 1983,
 Carnegie Mellon University). Gaussian is a federally registered
 trademark of Gaussian, Inc.
  
 This software contains proprietary and confidential information,
 including trade secrets, belonging to Gaussian, Inc.
  
 This software is provided under written license and may be
 used, copied, transmitted, or stored only in accord with that
 written license.
  
 The following legend is applicable only to US Government
 contracts under FAR:
  
                    RESTRICTED RIGHTS LEGEND
  
 Use, reproduction and disclosure by the US Government is
 subject to restrictions as set forth in subparagraphs (a)
 and (c) of the Commercial Computer Software - Restricted
 Rights clause in FAR 52.227-19.
  
 Gaussian, Inc.
 340 Quinnipiac St., Bldg. 40, Wallingford CT 06492
  
  
 ---------------------------------------------------------------
 Warning -- This program may not be used in any manner that
 competes with the business of Gaussian, Inc. or will provide
 assistance to any competitor of Gaussian, Inc.  The licensee
 of this program is prohibited from giving any competitor of
 Gaussian, Inc. access to this program.  By using this program,
 the user acknowledges that Gaussian, Inc. is engaged in the
 business of creating and licensing software in the field of
 computational chemistry and represents and warrants to the
 licensee that it is not a competitor of Gaussian, Inc. and that
 it will not use this program in any manner prohibited above.
 ---------------------------------------------------------------
  

 Cite this work as:
 Gaussian 16, Revision B.01,
 M. J. Frisch, G. W. Trucks, H. B. Schlegel, G. E. Scuseria, 
 M. A. Robb, J. R. Cheeseman, G. Scalmani, V. Barone, 
 G. A. Petersson, H. Nakatsuji, X. Li, M. Caricato, A. V. Marenich, 
 J. Bloino, B. G. Janesko, R. Gomperts, B. Mennucci, H. P. Hratchian, 
 J. V. Ortiz, A. F. Izmaylov, J. L. Sonnenberg, D. Williams-Young, 
 F. Ding, F. Lipparini, F. Egidi, J. Goings, B. Peng, A. Petrone, 
 T. Henderson, D. Ranasinghe, V. G. Zakrzewski, J. Gao, N. Rega, 
 G. Zheng, W. Liang, M. Hada, M. Ehara, K. Toyota, R. Fukuda, 
 J. Hasegawa, M. Ishida, T. Nakajima, Y. Honda, O. Kitao, H. Nakai, 
 T. Vreven, K. Throssell, J. A. Montgomery, Jr., J. E. Peralta, 
 F. Ogliaro, M. J. Bearpark, J. J. Heyd, E. N. Brothers, K. N. Kudin, 
 V. N. Staroverov, T. A. Keith, R. Kobayashi, J. Normand, 
 K. Raghavachari, A. P. Rendell, J. C. Burant, S. S. Iyengar, 
 J. Tomasi, M. Cossi, J. M. Millam, M. Klene, C. Adamo, R. Cammi, 
 J. W. Ochterski, R. L. Martin, K. Morokuma, O. Farkas, 
 J. B. Foresman, and D. J. Fox, Gaussian, Inc., Wallingford CT, 2016.
 
 ******************************************
 Gaussian 16:  ES64L-G16RevB.01 20-Dec-2017
                10-Sep-2025 
 ******************************************
 %nprocshared=8
 Will use up to    8 processors via shared memory.
 %LindaWorkers=amr-127,amr-137,amr-200,amr-206,amr-213,amr-227
 %subst l401 /mnt/research/peralta/software/gaussian/g16B.03/g16-local/
 %subst l502 /mnt/research/peralta/software/gaussian/g16B.03/g16-local/
 %chk=Fe3-PBEh1PBE.2.chk
 %mem=24Gb
 SetLPE:    new flags="-opt 'Tsnet.Node.lindarsharg: ssh'  -nodelist 'amr-127.i amr-137.i amr-200.i amr-206.i amr-213.i amr-227.i' -env GAUSS_MDEF=3221225472 -env GAUSS_EXEDIR="/mnt/research/peralta/software/gaussian/g16B.03//g16/bsd:/mnt/research/peralta/software/gaussian/g16B.03//g16""
 Will use up to    6 processors via Linda.
 ----------------------------------------------------------------------
 #p nosymm test PBEh1PBE/Gen geom=CheckPoint guess=read scf(conver=8) i
 op(4/151=1)
 ----------------------------------------------------------------------
 1/29=2,38=1,172=1/1;
 2/12=2,15=1,40=1/2;
 3/5=7,11=2,14=-4,25=1,30=1,74=-26,116=-2/1,2,3;
 4/5=1,151=1/1;
 5/5=2,6=8,38=6/2;
 6/7=2,8=2,9=2,10=2,28=1/1;
 99/5=1,9=1/99;
 Leave Link    1 at Wed Sep 10 17:16:01 2025, MaxMem=  3221225472 cpu:              11.9 elap:               1.7
 (Enter /mnt/research/peralta/software/gaussian/g16B.03//g16/l101.exe)
 ----------------------------------------------------
 SCF calculation flipping: 1 and 3 atoms Fe3 PBEh1PBE
 ----------------------------------------------------
 Structure from the checkpoint file:  "Fe3-PBEh1PBE.2.chk"
 Charge =  0 Multiplicity = 6
 Z-Matrix found in chk file.
 Fe,0,-0.439941,0.175786,10.830498
 Fe,0,2.377917,2.399541,10.118445
 Fe,0,-0.538104,3.149791,10.365879
 O,0,-1.572873,1.774281,11.349062
 O,0,1.08689,3.818712,9.430202
 O,0,0.793712,1.502268,10.43966
 Cl,0,0.500735,-1.841989,10.28472
 Cl,0,4.061527,0.979902,10.875756
 Cl,0,-2.045629,4.839339,10.360254
 O,0,-1.452491,0.232414,9.035491
 O,0,2.440929,3.450852,11.884644
 O,0,-1.284914,2.433222,8.599011
 O,0,0.24124,3.808827,12.13259
 N,0,-2.253102,-0.827907,11.766118
 N,0,0.10104,-0.092492,12.908186
 N,0,2.703519,1.654227,8.116747
 N,0,3.819427,3.867722,9.183296
 C,0,-2.955108,1.513169,11.468528
 C,0,1.922604,0.721133,7.531337
 H,0,1.128478,0.437129,7.968628
 C,0,-1.687659,1.271967,8.338006
 C,0,-3.087223,0.259392,12.319401
 H,0,-2.802896,0.456458,13.246988
 H,0,-4.034362,-0.027837,12.342157
 C,0,4.627274,3.116901,8.20907
 H,0,5.378447,2.674569,8.678303
 H,0,5.009005,3.745668,7.546489
 C,0,1.677133,5.095469,9.271916
 C,0,3.810475,2.083276,7.497515
 C,0,1.103427,0.564236,13.520041
 H,0,1.634913,1.166721,13.013083
 C,0,2.971267,4.879776,8.487491
 H,0,2.75916,4.5659,7.572834
 H,0,3.46413,5.735248,8.414351
 C,0,2.257565,0.169685,6.304436
 H,0,1.699119,-0.486592,5.904513
 C,0,-1.710298,-1.68609,12.829235
 H,0,-1.33149,-2.507959,12.42783
 H,0,-2.440538,-1.952889,13.442158
 C,0,-0.63729,-0.968131,13.609544
 C,0,1.423149,3.900651,12.509159
 C,0,4.706428,4.529322,10.170509
 H,0,5.356019,5.092509,9.700136
 H,0,5.181144,3.848175,10.691167
 H,0,4.168271,5.084513,10.772652
 C,0,-3.031206,-1.653331,10.818963
 H,0,-3.741193,-2.124426,11.303107
 H,0,-2.438543,-2.306316,10.391469
 H,0,-3.429888,-1.07663,10.134224
 C,0,3.411853,0.584586,5.669696
 H,0,3.66315,0.203928,4.836354
 C,0,4.193193,1.551236,6.25223
 H,0,4.982098,1.857108,5.820293
 C,0,-0.385618,-1.202707,14.952564
 H,0,-0.912282,-1.829714,15.434215
 C,0,1.384555,0.391257,14.859415
 H,0,2.079591,0.88841,15.274448
 C,0,-2.522715,1.082034,7.095939
 H,0,-2.709611,1.954824,6.691344
 H,0,-3.366887,0.644654,7.333589
 H,0,-2.034096,0.523252,6.456087
 C,0,0.63813,-0.518171,15.58971
 H,0,0.823765,-0.670041,16.508924
 C,0,1.661299,4.597152,13.806167
 H,0,2.625524,4.686374,13.95682
 H,0,1.263686,4.075977,14.534654
 H,0,1.251161,5.486795,13.779337
 H,0,-3.3929,1.348043,10.485171
 H,0,-3.455444,2.350544,11.952664
 H,0,1.895308,5.532581,10.245186
 H,0,1.007782,5.753813,8.720125
 Recover connectivity data from disk.
 ITRead=  0  0  0  0  0  0  0  0  0  0  0  0  0  0  0  0  0  0  0  0
 ITRead=  0  0  0  0  0  0  0  0  0  0  0  0  0  0  0  0  0  0  0  0
 ITRead=  0  0  0  0  0  0  0  0  0  0  0  0  0  0  0  0  0  0  0  0
 ITRead=  0  0  0  0  0  0  0  0  0  0  0
 MicOpt= -1 -1 -1 -1 -1 -1 -1 -1 -1 -1 -1 -1 -1 -1 -1 -1 -1 -1 -1 -1
 MicOpt= -1 -1 -1 -1 -1 -1 -1 -1 -1 -1 -1 -1 -1 -1 -1 -1 -1 -1 -1 -1
 MicOpt= -1 -1 -1 -1 -1 -1 -1 -1 -1 -1 -1 -1 -1 -1 -1 -1 -1 -1 -1 -1
 MicOpt= -1 -1 -1 -1 -1 -1 -1 -1 -1 -1 -1
 NAtoms=     71 NQM=       71 NQMF=       0 NMMI=      0 NMMIF=      0
                NMic=       0 NMicF=      0.
                    Isotopes and Nuclear Properties:
 (Nuclear quadrupole moments (NQMom) in fm**2, nuclear magnetic moments (NMagM)
  in nuclear magnetons)

  Atom         1           2           3           4           5           6           7           8           9          10
 IAtWgt=          56          56          56          16          16          16          35          35          35          16
 AtmWgt=  55.9349393  55.9349393  55.9349393  15.9949146  15.9949146  15.9949146  34.9688527  34.9688527  34.9688527  15.9949146
 NucSpn=           0           0           0           0           0           0           3           3           3           0
 AtZEff=  25.2200000  25.2200000  25.2200000   5.6000000   5.6000000   5.6000000  14.2400000  14.2400000  14.2400000   5.6000000
 NQMom=    0.0000000   0.0000000   0.0000000   0.0000000   0.0000000   0.0000000  -8.1650000  -8.1650000  -8.1650000   0.0000000
 NMagM=    0.0000000   0.0000000   0.0000000   0.0000000   0.0000000   0.0000000   0.8218740   0.8218740   0.8218740   0.0000000
 AtZNuc=  26.0000000  26.0000000  26.0000000   8.0000000   8.0000000   8.0000000  17.0000000  17.0000000  17.0000000   8.0000000

  Atom        11          12          13          14          15          16          17          18          19          20
 IAtWgt=          16          16          16          14          14          14          14          12          12           1
 AtmWgt=  15.9949146  15.9949146  15.9949146  14.0030740  14.0030740  14.0030740  14.0030740  12.0000000  12.0000000   1.0078250
 NucSpn=           0           0           0           2           2           2           2           0           0           1
 AtZEff=   5.6000000   5.6000000   5.6000000   4.5500000   4.5500000   4.5500000   4.5500000   3.6000000   3.6000000   1.0000000
 NQMom=    0.0000000   0.0000000   0.0000000   2.0440000   2.0440000   2.0440000   2.0440000   0.0000000   0.0000000   0.0000000
 NMagM=    0.0000000   0.0000000   0.0000000   0.4037610   0.4037610   0.4037610   0.4037610   0.0000000   0.0000000   2.7928460
 AtZNuc=   8.0000000   8.0000000   8.0000000   7.0000000   7.0000000   7.0000000   7.0000000   6.0000000   6.0000000   1.0000000

  Atom        21          22          23          24          25          26          27          28          29          30
 IAtWgt=          12          12           1           1          12           1           1          12          12          12
 AtmWgt=  12.0000000  12.0000000   1.0078250   1.0078250  12.0000000   1.0078250   1.0078250  12.0000000  12.0000000  12.0000000
 NucSpn=           0           0           1           1           0           1           1           0           0           0
 AtZEff=   3.6000000   3.6000000   1.0000000   1.0000000   3.6000000   1.0000000   1.0000000   3.6000000   3.6000000   3.6000000
 NQMom=    0.0000000   0.0000000   0.0000000   0.0000000   0.0000000   0.0000000   0.0000000   0.0000000   0.0000000   0.0000000
 NMagM=    0.0000000   0.0000000   2.7928460   2.7928460   0.0000000   2.7928460   2.7928460   0.0000000   0.0000000   0.0000000
 AtZNuc=   6.0000000   6.0000000   1.0000000   1.0000000   6.0000000   1.0000000   1.0000000   6.0000000   6.0000000   6.0000000

  Atom        31          32          33          34          35          36          37          38          39          40
 IAtWgt=           1          12           1           1          12           1          12           1           1          12
 AtmWgt=   1.0078250  12.0000000   1.0078250   1.0078250  12.0000000   1.0078250  12.0000000   1.0078250   1.0078250  12.0000000
 NucSpn=           1           0           1           1           0           1           0           1           1           0
 AtZEff=   1.0000000   3.6000000   1.0000000   1.0000000   3.6000000   1.0000000   3.6000000   1.0000000   1.0000000   3.6000000
 NQMom=    0.0000000   0.0000000   0.0000000   0.0000000   0.0000000   0.0000000   0.0000000   0.0000000   0.0000000   0.0000000
 NMagM=    2.7928460   0.0000000   2.7928460   2.7928460   0.0000000   2.7928460   0.0000000   2.7928460   2.7928460   0.0000000
 AtZNuc=   1.0000000   6.0000000   1.0000000   1.0000000   6.0000000   1.0000000   6.0000000   1.0000000   1.0000000   6.0000000

  Atom        41          42          43          44          45          46          47          48          49          50
 IAtWgt=          12          12           1           1           1          12           1           1           1          12
 AtmWgt=  12.0000000  12.0000000   1.0078250   1.0078250   1.0078250  12.0000000   1.0078250   1.0078250   1.0078250  12.0000000
 NucSpn=           0           0           1           1           1           0           1           1           1           0
 AtZEff=   3.6000000   3.6000000   1.0000000   1.0000000   1.0000000   3.6000000   1.0000000   1.0000000   1.0000000   3.6000000
 NQMom=    0.0000000   0.0000000   0.0000000   0.0000000   0.0000000   0.0000000   0.0000000   0.0000000   0.0000000   0.0000000
 NMagM=    0.0000000   0.0000000   2.7928460   2.7928460   2.7928460   0.0000000   2.7928460   2.7928460   2.7928460   0.0000000
 AtZNuc=   6.0000000   6.0000000   1.0000000   1.0000000   1.0000000   6.0000000   1.0000000   1.0000000   1.0000000   6.0000000

  Atom        51          52          53          54          55          56          57          58          59          60
 IAtWgt=           1          12           1          12           1          12           1          12           1           1
 AtmWgt=   1.0078250  12.0000000   1.0078250  12.0000000   1.0078250  12.0000000   1.0078250  12.0000000   1.0078250   1.0078250
 NucSpn=           1           0           1           0           1           0           1           0           1           1
 AtZEff=   1.0000000   3.6000000   1.0000000   3.6000000   1.0000000   3.6000000   1.0000000   3.6000000   1.0000000   1.0000000
 NQMom=    0.0000000   0.0000000   0.0000000   0.0000000   0.0000000   0.0000000   0.0000000   0.0000000   0.0000000   0.0000000
 NMagM=    2.7928460   0.0000000   2.7928460   0.0000000   2.7928460   0.0000000   2.7928460   0.0000000   2.7928460   2.7928460
 AtZNuc=   1.0000000   6.0000000   1.0000000   6.0000000   1.0000000   6.0000000   1.0000000   6.0000000   1.0000000   1.0000000

  Atom        61          62          63          64          65          66          67          68          69          70
 IAtWgt=           1          12           1          12           1           1           1           1           1           1
 AtmWgt=   1.0078250  12.0000000   1.0078250  12.0000000   1.0078250   1.0078250   1.0078250   1.0078250   1.0078250   1.0078250
 NucSpn=           1           0           1           0           1           1           1           1           1           1
 AtZEff=   1.0000000   3.6000000   1.0000000   3.6000000   1.0000000   1.0000000   1.0000000   1.0000000   1.0000000   1.0000000
 NQMom=    0.0000000   0.0000000   0.0000000   0.0000000   0.0000000   0.0000000   0.0000000   0.0000000   0.0000000   0.0000000
 NMagM=    2.7928460   0.0000000   2.7928460   0.0000000   2.7928460   2.7928460   2.7928460   2.7928460   2.7928460   2.7928460
 AtZNuc=   1.0000000   6.0000000   1.0000000   6.0000000   1.0000000   1.0000000   1.0000000   1.0000000   1.0000000   1.0000000

  Atom        71
 IAtWgt=           1
 AtmWgt=   1.0078250
 NucSpn=           1
 AtZEff=   1.0000000
 NQMom=    0.0000000
 NMagM=    2.7928460
 AtZNuc=   1.0000000
 Leave Link  101 at Wed Sep 10 17:16:02 2025, MaxMem=  3221225472 cpu:               1.6 elap:               0.2
 (Enter /mnt/research/peralta/software/gaussian/g16B.03//g16/l202.exe)
 Symmetry turned off by external request.
 Stoichiometry    C22H32Cl3Fe3N4O7(6)
 Framework group  C1[X(C22H32Cl3Fe3N4O7)]
 Deg. of freedom   207
 Full point group                 C1      NOp   1
                          Input orientation:                          
 ---------------------------------------------------------------------
 Center     Atomic      Atomic             Coordinates (Angstroms)
 Number     Number       Type             X           Y           Z
 ---------------------------------------------------------------------
      1         26           0       -0.439941    0.175786   10.830498
      2         26           0        2.377917    2.399541   10.118445
      3         26           0       -0.538104    3.149791   10.365879
      4          8           0       -1.572873    1.774281   11.349062
      5          8           0        1.086890    3.818712    9.430202
      6          8           0        0.793712    1.502268   10.439660
      7         17           0        0.500735   -1.841989   10.284720
      8         17           0        4.061527    0.979902   10.875756
      9         17           0       -2.045629    4.839339   10.360254
     10          8           0       -1.452491    0.232414    9.035491
     11          8           0        2.440929    3.450852   11.884644
     12          8           0       -1.284914    2.433222    8.599011
     13          8           0        0.241240    3.808827   12.132590
     14          7           0       -2.253102   -0.827907   11.766118
     15          7           0        0.101040   -0.092492   12.908186
     16          7           0        2.703519    1.654227    8.116747
     17          7           0        3.819427    3.867722    9.183296
     18          6           0       -2.955108    1.513169   11.468528
     19          6           0        1.922604    0.721133    7.531337
     20          1           0        1.128478    0.437129    7.968628
     21          6           0       -1.687659    1.271967    8.338006
     22          6           0       -3.087223    0.259392   12.319401
     23          1           0       -2.802896    0.456458   13.246988
     24          1           0       -4.034362   -0.027837   12.342157
     25          6           0        4.627274    3.116901    8.209070
     26          1           0        5.378447    2.674569    8.678303
     27          1           0        5.009005    3.745668    7.546489
     28          6           0        1.677133    5.095469    9.271916
     29          6           0        3.810475    2.083276    7.497515
     30          6           0        1.103427    0.564236   13.520041
     31          1           0        1.634913    1.166721   13.013083
     32          6           0        2.971267    4.879776    8.487491
     33          1           0        2.759160    4.565900    7.572834
     34          1           0        3.464130    5.735248    8.414351
     35          6           0        2.257565    0.169685    6.304436
     36          1           0        1.699119   -0.486592    5.904513
     37          6           0       -1.710298   -1.686090   12.829235
     38          1           0       -1.331490   -2.507959   12.427830
     39          1           0       -2.440538   -1.952889   13.442158
     40          6           0       -0.637290   -0.968131   13.609544
     41          6           0        1.423149    3.900651   12.509159
     42          6           0        4.706428    4.529322   10.170509
     43          1           0        5.356019    5.092509    9.700136
     44          1           0        5.181144    3.848175   10.691167
     45          1           0        4.168271    5.084513   10.772652
     46          6           0       -3.031206   -1.653331   10.818963
     47          1           0       -3.741193   -2.124426   11.303107
     48          1           0       -2.438543   -2.306316   10.391469
     49          1           0       -3.429888   -1.076630   10.134224
     50          6           0        3.411853    0.584586    5.669696
     51          1           0        3.663150    0.203928    4.836354
     52          6           0        4.193193    1.551236    6.252230
     53          1           0        4.982098    1.857108    5.820293
     54          6           0       -0.385618   -1.202707   14.952564
     55          1           0       -0.912282   -1.829714   15.434215
     56          6           0        1.384555    0.391257   14.859415
     57          1           0        2.079591    0.888410   15.274448
     58          6           0       -2.522715    1.082034    7.095939
     59          1           0       -2.709611    1.954824    6.691344
     60          1           0       -3.366887    0.644654    7.333589
     61          1           0       -2.034096    0.523252    6.456087
     62          6           0        0.638130   -0.518171   15.589710
     63          1           0        0.823765   -0.670041   16.508924
     64          6           0        1.661299    4.597152   13.806167
     65          1           0        2.625524    4.686374   13.956820
     66          1           0        1.263686    4.075977   14.534654
     67          1           0        1.251161    5.486795   13.779337
     68          1           0       -3.392900    1.348043   10.485171
     69          1           0       -3.455444    2.350544   11.952664
     70          1           0        1.895308    5.532581   10.245186
     71          1           0        1.007782    5.753813    8.720125
 ---------------------------------------------------------------------
 Rotational constants (GHZ):           0.1047429           0.0699982           0.0677988
 Leave Link  202 at Wed Sep 10 17:16:02 2025, MaxMem=  3221225472 cpu:               0.0 elap:               0.0
 (Enter /mnt/research/peralta/software/gaussian/g16B.03//g16/l301.exe)
 General basis read from cards:  (5D, 7F)
 Centers:       1      2      3
 6-311+g**
 ****
 Centers:      18     19     21     22     25     28     29     30     32     35
 Centers:      37     40     41     42     46     50     52     54     56     58
 Centers:      62     64     20     23     24     26     27     31     33     34
 Centers:      36     38     39     43     44     45     47     48     49     51
 Centers:      53     55     57     59     60     61     63     65     66     67
 Centers:      68     69     70     71      4      5      6     10     11     12
 Centers:      13     14     15     16     17      7      8      9
 6-31g**
 ****
 Ernie: Thresh=  0.10000D-02 Tol=  0.10000D-05 Strict=F.
   850 basis functions,  1586 primitive gaussians,   907 cartesian basis functions
   191 alpha electrons      186 beta electrons
       nuclear repulsion energy      8783.1908191551 Hartrees.
 IExCor= 2709 DFT=T Ex+Corr=PBEh1PBE ExCW=0 ScaHFX=  0.250000
 ScaDFX=  0.750000  0.750000  1.000000  1.000000 ScalE2=  1.000000  1.000000
 IRadAn=      5 IRanWt=     -1 IRanGd=            0 ICorTp=0 IEmpDi=  4
 NAtoms=   71 NActive=   71 NUniq=   71 SFac= 1.00D+00 NAtFMM=   60 NAOKFM=T Big=T
 Integral buffers will be    131072 words long.
 Raffenetti 2 integral format.
 Two-electron integral symmetry is turned off.
 Leave Link  301 at Wed Sep 10 17:16:02 2025, MaxMem=  3221225472 cpu:               0.3 elap:               0.0
 (Enter /mnt/research/peralta/software/gaussian/g16B.03//g16/linda-exe/l302.exel)
 NPDir=0 NMtPBC=     1 NCelOv=     1 NCel=       1 NClECP=     1 NCelD=      1
         NCelK=      1 NCelE2=     1 NClLst=     1 CellRange=     0.0.
 One-electron integrals computed using PRISM.
 NBasis=   850 RedAO= T EigKep=  5.25D-04  NBF=   850
 NBsUse=   850 1.00D-06 EigRej= -1.00D+00 NBFU=   850
 Precomputing XC quadrature grid using
 IXCGrd= 4 IRadAn=           5 IRanWt=          -1 IRanGd=           0 AccXCQ= 0.00D+00.
 Generated NRdTot=       0 NPtTot=           0 NUsed=           0 NTot=          32
 NSgBfM=   880   880   880   880   880 MxSgAt=    71 MxSgA2=    71.
 Leave Link  302 at Wed Sep 10 17:16:11 2025, MaxMem=  3221225472 cpu:              27.2 elap:               3.6
 (Enter /mnt/research/peralta/software/gaussian/g16B.03//g16/l303.exe)
 DipDrv:  MaxL=1.
 Leave Link  303 at Wed Sep 10 17:16:11 2025, MaxMem=  3221225472 cpu:               0.9 elap:               0.1
 (Enter /mnt/research/peralta/software/gaussian/g16B.03/g16-local/l401.exe)
 Initial guess from the checkpoint file:  "Fe3-PBEh1PBE.2.chk"
 B after Tr=     0.000000    0.000000    0.000000
         Rot=    1.000000    0.000000    0.000000    0.000000 Ang=   0.00 deg.
 Guess basis will be translated and rotated to current coordinates.
 JPrj=2 DoOrth=T DoCkMO=T.
 Initial guess <Sx>= 0.0000 <Sy>= 0.0000 <Sz>= 2.5000 <S**2>=13.7128 S= 3.2367
 Massaging initial Density matrix for AFM guess.
 Atoms chosen for inverting spin-density: 
    1    3
 Basis to be inverted:
    1   2   3   4   5   6   7   8   9  10  11  12  13  14  15  16  17  18
   19  20  21  22  23  24  25  26  27  28  29  30  31  32  33  34  35  36
   37  38  39  40  41  42  43  44  45  46  47  48  49  50  51  52  53  54
   55  56  57  58 117 118 119 120 121 122 123 124 125 126 127 128 129 130
  131 132 133 134 135 136 137 138 139 140 141 142 143 144 145 146 147 148
  149 150 151 152 153 154 155 156 157 158 159 160 161 162 163 164 165 166
  167 168 169 170 171 172 173 174
 Scaling the spin-density for the requested atoms.
 Scaling factor =   -1.000000000000000     
 NMTPBC=                       1
 Leave Link  401 at Wed Sep 10 17:16:24 2025, MaxMem=  3221225472 cpu:              98.4 elap:              12.5
 (Enter /mnt/research/peralta/software/gaussian/g16B.03/g16-local/l502.exe)
 Two-electron integral symmetry not used.
 UHF open shell SCF:
 Using DIIS extrapolation, IDIIS=  1040.
 NGot=  3221225472 LenX=  3219565874 LenY=  3218742318
 Requested convergence on RMS density matrix=1.00D-08 within 128 cycles.
 Requested convergence on MAX density matrix=1.00D-06.
 Requested convergence on             energy=1.00D-06.
 No special actions if energy rises.
 Error in input density:  TNEA=    190.9800 NAE=   191 TNEB=    186.0200 NBE=   186.
 Input dens not normalized.... using spin-flip?
 Fock matrices will be formed incrementally for  20 cycles.

 Cycle   1  Pass 1  IDiag  1:
 FoFJK:  IHMeth= 1 ICntrl=       0 DoSepK=F KAlg= 0 I1Cent=           0 FoldK=F
 IRaf= 860000000 NMat=       1 IRICut=       1 DoRegI=T DoRafI=F ISym2E= 0 IDoP0=0 IntGTp=1.
 FoFCou: FMM=T IPFlag=           0 FMFlag=      100000 FMFlg1=        2001
         NFxFlg=           0 DoJE=F BraDBF=F KetDBF=F FulRan=T
         wScrn=  0.000000 ICntrl=         0 IOpCl=  1 I1Cent=           0 NGrid=           0
         NMat0=    1 NMatS0=      1 NMatT0=    0 NMatD0=    1 NMtDS0=    0 NMtDT0=    0
 Symmetry not used in FoFCou.
 FMM levels:  10  Number of levels for PrismC:   9
 E= -6772.43307153926    
 DIIS: error= 2.57D-02 at cycle   1 NSaved=   1.
 NSaved= 1 IEnMin= 1 EnMin= -6772.43307153926     IErMin= 1 ErrMin= 2.57D-02
 ErrMax= 2.57D-02  0.00D+00 EMaxC= 1.00D-01 BMatC= 1.57D+00 BMatP= 1.57D+00
 IDIUse=3 WtCom= 7.43D-01 WtEn= 2.57D-01
 Coeff-Com:  0.100D+01
 Coeff-En:   0.100D+01
 Coeff:      0.100D+01
 Gap=    -0.203 Goal=   None    Shift=    0.000
 Gap=    -0.054 Goal=   None    Shift=    0.000
 GapD=   -0.203 DampG=0.250 DampE=0.250 DampFc=0.1250 IDamp=-1.
 Damping current iteration by 1.25D-01
 RMSDP=1.49D-03 MaxDP=7.21D-02              OVMax= 8.03D-01

 Cycle   2  Pass 1  IDiag  1:
 RMSU=  1.86D-04    CP:  9.99D-01
 E= -6772.39310991477     Delta-E=        0.039961624494 Rises=F Damp=T
 DIIS: error= 2.26D-02 at cycle   2 NSaved=   2.
 NSaved= 2 IEnMin= 1 EnMin= -6772.43307153926     IErMin= 2 ErrMin= 2.26D-02
 ErrMax= 2.26D-02  0.00D+00 EMaxC= 1.00D-01 BMatC= 1.21D+00 BMatP= 1.57D+00
 IDIUse=3 WtCom= 7.74D-01 WtEn= 2.26D-01
 Coeff-Com: -0.600D+01 0.700D+01
 Coeff-En:   0.000D+00 0.100D+01
 Coeff:     -0.464D+01 0.564D+01
 Gap=     0.084 Goal=   None    Shift=    0.000
 Gap=     0.165 Goal=   None    Shift=    0.000
 RMSDP=1.63D-03 MaxDP=1.16D-01 DE= 4.00D-02 OVMax= 1.98D-01

 Cycle   3  Pass 1  IDiag  1:
 RMSU=  1.31D-03    CP:  9.89D-01  3.00D+00
 E= -6771.97211351143     Delta-E=        0.420996403334 Rises=F Damp=F
 DIIS: error= 2.05D-02 at cycle   3 NSaved=   3.
 NSaved= 3 IEnMin= 1 EnMin= -6772.43307153926     IErMin= 3 ErrMin= 2.05D-02
 ErrMax= 2.05D-02  0.00D+00 EMaxC= 1.00D-01 BMatC= 2.54D+00 BMatP= 1.21D+00
 IDIUse=2 WtCom= 0.00D+00 WtEn= 1.00D+00
 Rare condition: small coef for last iteration:  0.000D+00
 Coeff-En:   0.000D+00 0.000D+00 0.100D+01
 Coeff:      0.000D+00 0.000D+00 0.100D+01
 Gap=     0.518 Goal=   None    Shift=    0.000
 Gap=     0.456 Goal=   None    Shift=    0.000
 RMSDP=2.78D-03 MaxDP=2.96D-01 DE= 4.21D-01 OVMax= 9.97D-01

 Cycle   4  Pass 1  IDiag  1:
 RMSU=  2.49D-03    CP:  9.88D-01  3.00D+00  5.14D-02
 E= -6751.33857072694     Delta-E=       20.633542784492 Rises=F Damp=F
 DIIS: error= 1.02D-01 at cycle   4 NSaved=   4.
 NSaved= 4 IEnMin= 1 EnMin= -6772.43307153926     IErMin= 3 ErrMin= 2.05D-02
 ErrMax= 1.02D-01  0.00D+00 EMaxC= 1.00D-01 BMatC= 8.76D+01 BMatP= 1.21D+00
 IDIUse=2 WtCom= 0.00D+00 WtEn= 1.00D+00
 Coeff-En:   0.000D+00 0.000D+00 0.956D+00 0.439D-01
 Coeff:      0.000D+00 0.000D+00 0.956D+00 0.439D-01
 Gap=     0.066 Goal=   None    Shift=    0.000
 Gap=    -0.023 Goal=   None    Shift=    0.000
 RMSDP=2.34D-03 MaxDP=1.93D-01 DE= 2.06D+01 OVMax= 9.91D-01

 Cycle   5  Pass 1  IDiag  1:
 RMSU=  1.20D-03    CP:  9.94D-01  3.00D+00  4.11D-01  2.14D-01
 E= -6771.45168297705     Delta-E=      -20.113112250105 Rises=F Damp=F
 DIIS: error= 3.59D-02 at cycle   5 NSaved=   5.
 NSaved= 5 IEnMin= 1 EnMin= -6772.43307153926     IErMin= 3 ErrMin= 2.05D-02
 ErrMax= 3.59D-02  0.00D+00 EMaxC= 1.00D-01 BMatC= 6.53D+00 BMatP= 1.21D+00
 IDIUse=2 WtCom= 0.00D+00 WtEn= 1.00D+00
 Coeff-En:   0.000D+00 0.000D+00 0.660D+00 0.000D+00 0.340D+00
 Coeff:      0.000D+00 0.000D+00 0.660D+00 0.000D+00 0.340D+00
 Gap=     0.245 Goal=   None    Shift=    0.000
 Gap=     0.188 Goal=   None    Shift=    0.000
 RMSDP=9.08D-04 MaxDP=7.74D-02 DE=-2.01D+01 OVMax= 1.24D-01

 Cycle   6  Pass 1  IDiag  1:
 RMSU=  4.54D-04    CP:  9.92D-01  3.00D+00  6.24D-01  1.03D-01  4.32D-01
 E= -6772.11552442121     Delta-E=       -0.663841444162 Rises=F Damp=F
 DIIS: error= 1.23D-02 at cycle   6 NSaved=   6.
 NSaved= 6 IEnMin= 1 EnMin= -6772.43307153926     IErMin= 6 ErrMin= 1.23D-02
 ErrMax= 1.23D-02  0.00D+00 EMaxC= 1.00D-01 BMatC= 1.33D+00 BMatP= 1.21D+00
 IDIUse=2 WtCom= 0.00D+00 WtEn= 1.00D+00
 Coeff-En:   0.000D+00 0.000D+00 0.394D+00 0.000D+00 0.000D+00 0.606D+00
 Coeff:      0.000D+00 0.000D+00 0.394D+00 0.000D+00 0.000D+00 0.606D+00
 Gap=     0.197 Goal=   None    Shift=    0.000
 Gap=     0.303 Goal=   None    Shift=    0.000
 RMSDP=8.19D-04 MaxDP=1.38D-01 DE=-6.64D-01 OVMax= 2.07D-01

 Cycle   7  Pass 1  IDiag  1:
 RMSU=  4.14D-04    CP:  9.92D-01  3.00D+00  7.07D-01  9.10D-02  4.11D-01
                    CP: -5.36D-01
 E= -6772.04215777519     Delta-E=        0.073366646020 Rises=F Damp=F
 DIIS: error= 1.58D-02 at cycle   7 NSaved=   7.
 NSaved= 7 IEnMin= 1 EnMin= -6772.43307153926     IErMin= 6 ErrMin= 1.23D-02
 ErrMax= 1.58D-02  0.00D+00 EMaxC= 1.00D-01 BMatC= 1.92D+00 BMatP= 1.21D+00
 IDIUse=2 WtCom= 0.00D+00 WtEn= 1.00D+00
 EnCoef did     5 forward-backward iterations
 Coeff-En:   0.000D+00 0.000D+00 0.266D+00 0.000D+00 0.000D+00 0.467D+00
 Coeff-En:   0.267D+00
 Coeff:      0.000D+00 0.000D+00 0.266D+00 0.000D+00 0.000D+00 0.467D+00
 Coeff:      0.267D+00
 Gap=     0.171 Goal=   None    Shift=    0.000
 Gap=     0.192 Goal=   None    Shift=    0.000
 RMSDP=4.80D-04 MaxDP=6.65D-02 DE= 7.34D-02 OVMax= 8.00D-02

 Cycle   8  Pass 1  IDiag  1:
 RMSU=  8.83D-05    CP:  9.91D-01  3.00D+00  7.82D-01  5.85D-02  2.69D-01
                    CP:  1.99D-01  3.79D-01
 E= -6772.29907134150     Delta-E=       -0.256913566309 Rises=F Damp=F
 DIIS: error= 2.55D-03 at cycle   8 NSaved=   8.
 NSaved= 8 IEnMin= 1 EnMin= -6772.43307153926     IErMin= 8 ErrMin= 2.55D-03
 ErrMax= 2.55D-03  0.00D+00 EMaxC= 1.00D-01 BMatC= 4.98D-02 BMatP= 1.21D+00
 IDIUse=3 WtCom= 9.74D-01 WtEn= 2.55D-02
 Coeff-Com: -0.538D-01 0.627D-01-0.418D-01 0.850D-03-0.907D-03 0.103D+00
 Coeff-Com: -0.653D-01 0.995D+00
 Coeff-En:   0.000D+00 0.000D+00 0.000D+00 0.000D+00 0.000D+00 0.628D-01
 Coeff-En:   0.000D+00 0.937D+00
 Coeff:     -0.524D-01 0.611D-01-0.408D-01 0.829D-03-0.884D-03 0.102D+00
 Coeff:     -0.636D-01 0.994D+00
 Gap=     0.154 Goal=   None    Shift=    0.000
 Gap=     0.164 Goal=   None    Shift=    0.000
 RMSDP=1.05D-04 MaxDP=2.04D-02 DE=-2.57D-01 OVMax= 2.21D-02

 Cycle   9  Pass 1  IDiag  1:
 RMSU=  5.34D-05    CP:  9.91D-01  3.00D+00  7.60D-01  6.16D-02  2.77D-01
                    CP:  3.72D-01  3.05D-01  1.12D+00
 E= -6772.30578812845     Delta-E=       -0.006716786951 Rises=F Damp=F
 DIIS: error= 7.54D-04 at cycle   9 NSaved=   9.
 NSaved= 9 IEnMin= 1 EnMin= -6772.43307153926     IErMin= 9 ErrMin= 7.54D-04
 ErrMax= 7.54D-04  0.00D+00 EMaxC= 1.00D-01 BMatC= 4.82D-03 BMatP= 4.98D-02
 IDIUse=3 WtCom= 9.92D-01 WtEn= 7.54D-03
 Coeff-Com: -0.101D-01 0.118D-01-0.405D-01 0.971D-04 0.391D-02 0.496D-01
 Coeff-Com: -0.575D-01 0.673D+00 0.370D+00
 Coeff-En:   0.000D+00 0.000D+00 0.000D+00 0.000D+00 0.000D+00 0.000D+00
 Coeff-En:   0.000D+00 0.000D+00 0.100D+01
 Coeff:     -0.100D-01 0.117D-01-0.402D-01 0.964D-04 0.388D-02 0.492D-01
 Coeff:     -0.571D-01 0.667D+00 0.375D+00
 Gap=     0.157 Goal=   None    Shift=    0.000
 Gap=     0.158 Goal=   None    Shift=    0.000
 RMSDP=3.45D-05 MaxDP=3.98D-03 DE=-6.72D-03 OVMax= 5.69D-03

 Cycle  10  Pass 1  IDiag  1:
 RMSU=  2.03D-05    CP:  9.91D-01  3.00D+00  7.56D-01  6.26D-02  2.82D-01
                    CP:  3.78D-01  3.08D-01  1.19D+00  5.24D-01
 E= -6772.30658578413     Delta-E=       -0.000797655675 Rises=F Damp=F
 DIIS: error= 3.15D-04 at cycle  10 NSaved=  10.
 NSaved=10 IEnMin= 1 EnMin= -6772.43307153926     IErMin=10 ErrMin= 3.15D-04
 ErrMax= 3.15D-04  0.00D+00 EMaxC= 1.00D-01 BMatC= 3.49D-04 BMatP= 4.82D-03
 IDIUse=3 WtCom= 9.97D-01 WtEn= 3.15D-03
 Coeff-Com: -0.674D-02 0.794D-02-0.145D-01-0.395D-04 0.238D-02 0.443D-02
 Coeff-Com: -0.167D-01 0.172D+00 0.207D+00 0.644D+00
 Coeff-En:   0.000D+00 0.000D+00 0.000D+00 0.000D+00 0.000D+00 0.000D+00
 Coeff-En:   0.000D+00 0.000D+00 0.000D+00 0.100D+01
 Coeff:     -0.672D-02 0.792D-02-0.145D-01-0.393D-04 0.238D-02 0.442D-02
 Coeff:     -0.166D-01 0.171D+00 0.206D+00 0.645D+00
 Gap=     0.155 Goal=   None    Shift=    0.000
 Gap=     0.160 Goal=   None    Shift=    0.000
 RMSDP=1.33D-05 MaxDP=1.83D-03 DE=-7.98D-04 OVMax= 3.41D-03

 Cycle  11  Pass 1  IDiag  1:
 RMSU=  1.07D-05    CP:  9.91D-01  3.00D+00  7.56D-01  6.25D-02  2.82D-01
                    CP:  3.67D-01  3.14D-01  1.24D+00  5.75D-01  8.26D-01
 E= -6772.30661370015     Delta-E=       -0.000027916021 Rises=F Damp=F
 DIIS: error= 2.29D-04 at cycle  11 NSaved=  11.
 NSaved=11 IEnMin= 1 EnMin= -6772.43307153926     IErMin=11 ErrMin= 2.29D-04
 ErrMax= 2.29D-04  0.00D+00 EMaxC= 1.00D-01 BMatC= 2.25D-04 BMatP= 3.49D-04
 IDIUse=3 WtCom= 9.98D-01 WtEn= 2.29D-03
 Coeff-Com:  0.865D-02-0.979D-02-0.513D-02 0.575D-04 0.761D-03-0.382D-02
 Coeff-Com: -0.364D-02 0.286D-01 0.102D+00 0.499D+00 0.383D+00
 Coeff-En:   0.000D+00 0.000D+00 0.000D+00 0.000D+00 0.000D+00 0.000D+00
 Coeff-En:   0.000D+00 0.000D+00 0.000D+00 0.356D+00 0.644D+00
 Coeff:      0.863D-02-0.977D-02-0.512D-02 0.574D-04 0.760D-03-0.381D-02
 Coeff:     -0.364D-02 0.285D-01 0.101D+00 0.499D+00 0.384D+00
 Gap=     0.156 Goal=   None    Shift=    0.000
 Gap=     0.160 Goal=   None    Shift=    0.000
 RMSDP=7.13D-06 MaxDP=1.16D-03 DE=-2.79D-05 OVMax= 1.62D-03

 Cycle  12  Pass 1  IDiag  1:
 RMSU=  4.07D-06    CP:  9.91D-01  3.00D+00  7.55D-01  6.24D-02  2.82D-01
                    CP:  3.67D-01  3.17D-01  1.25D+00  6.10D-01  9.04D-01
                    CP:  5.28D-01
 E= -6772.30665026969     Delta-E=       -0.000036569543 Rises=F Damp=F
 DIIS: error= 7.08D-05 at cycle  12 NSaved=  12.
 NSaved=12 IEnMin= 1 EnMin= -6772.43307153926     IErMin=12 ErrMin= 7.08D-05
 ErrMax= 7.08D-05  0.00D+00 EMaxC= 1.00D-01 BMatC= 3.01D-05 BMatP= 2.25D-04
 IDIUse=1 WtCom= 1.00D+00 WtEn= 0.00D+00
 Coeff-Com:  0.317D-02-0.364D-02 0.113D-02 0.354D-04-0.538D-03-0.257D-02
 Coeff-Com:  0.100D-02-0.283D-01 0.102D-01 0.133D+00 0.212D+00 0.674D+00
 Coeff:      0.317D-02-0.364D-02 0.113D-02 0.354D-04-0.538D-03-0.257D-02
 Coeff:      0.100D-02-0.283D-01 0.102D-01 0.133D+00 0.212D+00 0.674D+00
 Gap=     0.156 Goal=   None    Shift=    0.000
 Gap=     0.160 Goal=   None    Shift=    0.000
 RMSDP=3.35D-06 MaxDP=5.45D-04 DE=-3.66D-05 OVMax= 5.95D-04

 Cycle  13  Pass 1  IDiag  1:
 RMSU=  2.13D-06    CP:  9.91D-01  3.00D+00  7.55D-01  6.24D-02  2.82D-01
                    CP:  3.69D-01  3.16D-01  1.25D+00  6.30D-01  9.88D-01
                    CP:  5.94D-01  8.77D-01
 E= -6772.30665592945     Delta-E=       -0.000005659760 Rises=F Damp=F
 DIIS: error= 2.23D-05 at cycle  13 NSaved=  13.
 NSaved=13 IEnMin= 1 EnMin= -6772.43307153926     IErMin=13 ErrMin= 2.23D-05
 ErrMax= 2.23D-05  0.00D+00 EMaxC= 1.00D-01 BMatC= 5.36D-06 BMatP= 3.01D-05
 IDIUse=1 WtCom= 1.00D+00 WtEn= 0.00D+00
 Coeff-Com:  0.873D-03-0.104D-02 0.202D-02 0.969D-05-0.596D-03-0.712D-03
 Coeff-Com:  0.126D-02-0.270D-01-0.169D-01-0.264D-01 0.608D-01 0.439D+00
 Coeff-Com:  0.569D+00
 Coeff:      0.873D-03-0.104D-02 0.202D-02 0.969D-05-0.596D-03-0.712D-03
 Coeff:      0.126D-02-0.270D-01-0.169D-01-0.264D-01 0.608D-01 0.439D+00
 Coeff:      0.569D+00
 Gap=     0.156 Goal=   None    Shift=    0.000
 Gap=     0.160 Goal=   None    Shift=    0.000
 RMSDP=1.98D-06 MaxDP=2.04D-04 DE=-5.66D-06 OVMax= 3.42D-04

 Cycle  14  Pass 1  IDiag  1:
 RMSU=  1.15D-06    CP:  9.91D-01  3.00D+00  7.55D-01  6.23D-02  2.81D-01
                    CP:  3.71D-01  3.15D-01  1.26D+00  6.35D-01  1.00D+00
                    CP:  6.60D-01  1.05D+00  7.96D-01
 E= -6772.30665742998     Delta-E=       -0.000001500532 Rises=F Damp=F
 DIIS: error= 1.10D-05 at cycle  14 NSaved=  14.
 NSaved=14 IEnMin= 1 EnMin= -6772.43307153926     IErMin=14 ErrMin= 1.10D-05
 ErrMax= 1.10D-05  0.00D+00 EMaxC= 1.00D-01 BMatC= 7.77D-07 BMatP= 5.36D-06
 IDIUse=1 WtCom= 1.00D+00 WtEn= 0.00D+00
 Coeff-Com: -0.605D-03 0.671D-03 0.711D-03-0.106D-04-0.109D-03 0.251D-03
 Coeff-Com:  0.272D-03-0.666D-02-0.124D-01-0.501D-01-0.222D-01 0.465D-01
 Coeff-Com:  0.336D+00 0.707D+00
 Coeff:     -0.605D-03 0.671D-03 0.711D-03-0.106D-04-0.109D-03 0.251D-03
 Coeff:      0.272D-03-0.666D-02-0.124D-01-0.501D-01-0.222D-01 0.465D-01
 Coeff:      0.336D+00 0.707D+00
 Gap=     0.156 Goal=   None    Shift=    0.000
 Gap=     0.160 Goal=   None    Shift=    0.000
 RMSDP=9.71D-07 MaxDP=1.53D-04 DE=-1.50D-06 OVMax= 2.22D-04

 Cycle  15  Pass 1  IDiag  1:
 RMSU=  5.53D-07    CP:  9.91D-01  3.00D+00  7.55D-01  6.23D-02  2.81D-01
                    CP:  3.71D-01  3.15D-01  1.26D+00  6.37D-01  1.01D+00
                    CP:  6.82D-01  1.16D+00  1.01D+00  8.04D-01
 E= -6772.30665770646     Delta-E=       -0.000000276479 Rises=F Damp=F
 DIIS: error= 4.88D-06 at cycle  15 NSaved=  15.
 NSaved=15 IEnMin= 1 EnMin= -6772.43307153926     IErMin=15 ErrMin= 4.88D-06
 ErrMax= 4.88D-06  0.00D+00 EMaxC= 1.00D-01 BMatC= 2.84D-07 BMatP= 7.77D-07
 IDIUse=1 WtCom= 1.00D+00 WtEn= 0.00D+00
 Coeff-Com: -0.508D-03 0.577D-03-0.206D-03-0.516D-05 0.118D-03 0.240D-03
 Coeff-Com: -0.108D-03 0.381D-02-0.181D-02-0.166D-01-0.256D-01-0.805D-01
 Coeff-Com:  0.316D-01 0.364D+00 0.725D+00
 Coeff:     -0.508D-03 0.577D-03-0.206D-03-0.516D-05 0.118D-03 0.240D-03
 Coeff:     -0.108D-03 0.381D-02-0.181D-02-0.166D-01-0.256D-01-0.805D-01
 Coeff:      0.316D-01 0.364D+00 0.725D+00
 Gap=     0.156 Goal=   None    Shift=    0.000
 Gap=     0.160 Goal=   None    Shift=    0.000
 RMSDP=4.76D-07 MaxDP=6.78D-05 DE=-2.76D-07 OVMax= 1.39D-04

 Cycle  16  Pass 1  IDiag  1:
 RMSU=  2.66D-07    CP:  9.91D-01  3.00D+00  7.55D-01  6.23D-02  2.81D-01
                    CP:  3.71D-01  3.15D-01  1.26D+00  6.38D-01  1.02D+00
                    CP:  6.88D-01  1.19D+00  1.11D+00  1.04D+00  1.04D+00
 E= -6772.30665781733     Delta-E=       -0.000000110871 Rises=F Damp=F
 DIIS: error= 2.95D-06 at cycle  16 NSaved=  16.
 NSaved=16 IEnMin= 1 EnMin= -6772.43307153926     IErMin=16 ErrMin= 2.95D-06
 ErrMax= 2.95D-06  0.00D+00 EMaxC= 1.00D-01 BMatC= 7.68D-08 BMatP= 2.84D-07
 IDIUse=1 WtCom= 1.00D+00 WtEn= 0.00D+00
 Coeff-Com: -0.276D-03 0.318D-03-0.315D-03-0.214D-05 0.111D-03 0.815D-04
 Coeff-Com: -0.108D-03 0.402D-02 0.177D-02 0.140D-02-0.117D-01-0.575D-01
 Coeff-Com: -0.649D-01 0.553D-01 0.419D+00 0.653D+00
 Coeff:     -0.276D-03 0.318D-03-0.315D-03-0.214D-05 0.111D-03 0.815D-04
 Coeff:     -0.108D-03 0.402D-02 0.177D-02 0.140D-02-0.117D-01-0.575D-01
 Coeff:     -0.649D-01 0.553D-01 0.419D+00 0.653D+00
 Gap=     0.156 Goal=   None    Shift=    0.000
 Gap=     0.160 Goal=   None    Shift=    0.000
 RMSDP=2.81D-07 MaxDP=3.22D-05 DE=-1.11D-07 OVMax= 1.03D-04

 Cycle  17  Pass 1  IDiag  1:
 RMSU=  1.60D-07    CP:  9.91D-01  3.00D+00  7.55D-01  6.23D-02  2.81D-01
                    CP:  3.70D-01  3.15D-01  1.26D+00  6.38D-01  1.02D+00
                    CP:  6.90D-01  1.21D+00  1.15D+00  1.13D+00  1.28D+00
                    CP:  1.02D+00
 E= -6772.30665785326     Delta-E=       -0.000000035932 Rises=F Damp=F
 DIIS: error= 2.18D-06 at cycle  17 NSaved=  17.
 NSaved=17 IEnMin= 1 EnMin= -6772.43307153926     IErMin=17 ErrMin= 2.18D-06
 ErrMax= 2.18D-06  0.00D+00 EMaxC= 1.00D-01 BMatC= 1.46D-08 BMatP= 7.68D-08
 IDIUse=1 WtCom= 1.00D+00 WtEn= 0.00D+00
 Coeff-Com:  0.459D-04-0.503D-04-0.467D-04 0.101D-05 0.852D-06-0.331D-04
 Coeff-Com:  0.103D-05 0.248D-03 0.116D-02 0.519D-02 0.332D-02 0.922D-02
 Coeff-Com: -0.358D-01-0.105D+00-0.101D+00 0.274D+00 0.949D+00
 Coeff:      0.459D-04-0.503D-04-0.467D-04 0.101D-05 0.852D-06-0.331D-04
 Coeff:      0.103D-05 0.248D-03 0.116D-02 0.519D-02 0.332D-02 0.922D-02
 Coeff:     -0.358D-01-0.105D+00-0.101D+00 0.274D+00 0.949D+00
 Gap=     0.156 Goal=   None    Shift=    0.000
 Gap=     0.160 Goal=   None    Shift=    0.000
 RMSDP=2.31D-07 MaxDP=2.77D-05 DE=-3.59D-08 OVMax= 9.38D-05

 Cycle  18  Pass 1  IDiag  1:
 RMSU=  9.89D-08    CP:  9.91D-01  3.00D+00  7.55D-01  6.23D-02  2.81D-01
                    CP:  3.70D-01  3.15D-01  1.26D+00  6.38D-01  1.02D+00
                    CP:  6.91D-01  1.22D+00  1.17D+00  1.20D+00  1.49D+00
                    CP:  1.51D+00  1.28D+00
 E= -6772.30665784664     Delta-E=        0.000000006619 Rises=F Damp=F
 DIIS: error= 1.42D-06 at cycle  18 NSaved=  18.
 NSaved=18 IEnMin= 1 EnMin= -6772.43307153926     IErMin=18 ErrMin= 1.42D-06
 ErrMax= 1.42D-06  0.00D+00 EMaxC= 1.00D-01 BMatC= 8.79D-09 BMatP= 1.46D-08
 IDIUse=1 WtCom= 1.00D+00 WtEn= 0.00D+00
 Coeff-Com:  0.145D-03-0.165D-03 0.907D-04 0.105D-05-0.375D-04-0.484D-04
 Coeff-Com:  0.302D-04-0.130D-02 0.326D-04 0.252D-02 0.579D-02 0.252D-01
 Coeff-Com:  0.655D-03-0.862D-01-0.205D+00-0.533D-01 0.612D+00 0.699D+00
 Coeff:      0.145D-03-0.165D-03 0.907D-04 0.105D-05-0.375D-04-0.484D-04
 Coeff:      0.302D-04-0.130D-02 0.326D-04 0.252D-02 0.579D-02 0.252D-01
 Coeff:      0.655D-03-0.862D-01-0.205D+00-0.533D-01 0.612D+00 0.699D+00
 Gap=     0.156 Goal=   None    Shift=    0.000
 Gap=     0.160 Goal=   None    Shift=    0.000
 RMSDP=1.43D-07 MaxDP=1.64D-05 DE= 6.62D-09 OVMax= 6.75D-05

 Cycle  19  Pass 1  IDiag  1:
 RMSU=  5.49D-08    CP:  9.91D-01  3.00D+00  7.55D-01  6.23D-02  2.81D-01
                    CP:  3.70D-01  3.15D-01  1.26D+00  6.38D-01  1.02D+00
                    CP:  6.92D-01  1.22D+00  1.19D+00  1.23D+00  1.62D+00
                    CP:  1.78D+00  1.74D+00  1.08D+00
 E= -6772.30665784970     Delta-E=       -0.000000003052 Rises=F Damp=F
 DIIS: error= 7.46D-07 at cycle  19 NSaved=  19.
 NSaved=19 IEnMin= 1 EnMin= -6772.43307153926     IErMin=19 ErrMin= 7.46D-07
 ErrMax= 7.46D-07  0.00D+00 EMaxC= 1.00D-01 BMatC= 3.19D-09 BMatP= 8.79D-09
 IDIUse=1 WtCom= 1.00D+00 WtEn= 0.00D+00
 Coeff-Com:  0.904D-04-0.103D-03 0.751D-04 0.713D-06-0.246D-04-0.166D-04
 Coeff-Com:  0.153D-04-0.868D-03-0.421D-03-0.354D-03 0.215D-02 0.928D-02
 Coeff-Com:  0.140D-01-0.783D-02-0.676D-01-0.139D+00-0.470D-01 0.369D+00
 Coeff-Com:  0.869D+00
 Coeff:      0.904D-04-0.103D-03 0.751D-04 0.713D-06-0.246D-04-0.166D-04
 Coeff:      0.153D-04-0.868D-03-0.421D-03-0.354D-03 0.215D-02 0.928D-02
 Coeff:      0.140D-01-0.783D-02-0.676D-01-0.139D+00-0.470D-01 0.369D+00
 Coeff:      0.869D+00
 Gap=     0.156 Goal=   None    Shift=    0.000
 Gap=     0.160 Goal=   None    Shift=    0.000
 RMSDP=1.06D-07 MaxDP=1.19D-05 DE=-3.05D-09 OVMax= 4.94D-05

 Cycle  20  Pass 1  IDiag  1:
 RMSU=  3.70D-08    CP:  9.91D-01  3.00D+00  7.55D-01  6.23D-02  2.81D-01
                    CP:  3.70D-01  3.15D-01  1.26D+00  6.38D-01  1.02D+00
                    CP:  6.92D-01  1.23D+00  1.19D+00  1.25D+00  1.69D+00
                    CP:  1.97D+00  2.06D+00  1.48D+00  1.13D+00
 E= -6772.30665785320     Delta-E=       -0.000000003505 Rises=F Damp=F
 DIIS: error= 4.22D-07 at cycle  20 NSaved=  20.
 NSaved=20 IEnMin= 1 EnMin= -6772.43307153926     IErMin=20 ErrMin= 4.22D-07
 ErrMax= 4.22D-07  0.00D+00 EMaxC= 1.00D-01 BMatC= 1.05D-09 BMatP= 3.19D-09
 IDIUse=1 WtCom= 1.00D+00 WtEn= 0.00D+00
 Coeff-Com: -0.326D-05 0.347D-05 0.113D-04-0.378D-07-0.283D-05 0.979D-05
 Coeff-Com:  0.102D-05-0.819D-04-0.257D-03-0.104D-02-0.641D-03-0.416D-02
 Coeff-Com:  0.887D-02 0.297D-01 0.402D-01-0.708D-01-0.290D+00-0.616D-01
 Coeff-Com:  0.567D+00 0.782D+00
 Coeff:     -0.326D-05 0.347D-05 0.113D-04-0.378D-07-0.283D-05 0.979D-05
 Coeff:      0.102D-05-0.819D-04-0.257D-03-0.104D-02-0.641D-03-0.416D-02
 Coeff:      0.887D-02 0.297D-01 0.402D-01-0.708D-01-0.290D+00-0.616D-01
 Coeff:      0.567D+00 0.782D+00
 Gap=     0.156 Goal=   None    Shift=    0.000
 Gap=     0.160 Goal=   None    Shift=    0.000
 RMSDP=6.91D-08 MaxDP=7.75D-06 DE=-3.51D-09 OVMax= 2.95D-05

 Cycle  21  Pass 1  IDiag  1:
 Restarting incremental Fock formation.
 E= -6772.30665785371     Delta-E=       -0.000000000509 Rises=F Damp=F
 DIIS: error= 1.43D-07 at cycle  21 NSaved=  20.
 NSaved=20 IEnMin= 1 EnMin= -6772.43307153926     IErMin=20 ErrMin= 1.43D-07
 ErrMax= 1.43D-07  0.00D+00 EMaxC= 1.00D-01 BMatC= 2.88D-10 BMatP= 1.05D-09
 IDIUse=1 WtCom= 1.00D+00 WtEn= 0.00D+00
 Coeff-Com: -0.718D-05 0.799D-05-0.764D-05 0.216D-05 0.848D-05-0.816D-06
 Coeff-Com:  0.106D-03-0.562D-04-0.473D-03-0.621D-03-0.365D-02 0.266D-02
 Coeff-Com:  0.181D-01 0.336D-01-0.181D-01-0.162D+00-0.990D-01 0.179D+00
 Coeff-Com:  0.474D+00 0.576D+00
 Coeff:     -0.718D-05 0.799D-05-0.764D-05 0.216D-05 0.848D-05-0.816D-06
 Coeff:      0.106D-03-0.562D-04-0.473D-03-0.621D-03-0.365D-02 0.266D-02
 Coeff:      0.181D-01 0.336D-01-0.181D-01-0.162D+00-0.990D-01 0.179D+00
 Coeff:      0.474D+00 0.576D+00
 Gap=     0.156 Goal=   None    Shift=    0.000
 Gap=     0.160 Goal=   None    Shift=    0.000
 RMSDP=1.99D-08 MaxDP=1.99D-06 DE=-5.09D-10 OVMax= 8.45D-06

 Cycle  22  Pass 1  IDiag  1:
 RMSU=  1.99D-08    CP:  1.00D+00
 E= -6772.30665785410     Delta-E=       -0.000000000386 Rises=F Damp=F
 DIIS: error= 6.09D-08 at cycle  22 NSaved=  20.
 NSaved=20 IEnMin= 1 EnMin= -6772.43307153926     IErMin=20 ErrMin= 6.09D-08
 ErrMax= 6.09D-08  0.00D+00 EMaxC= 1.00D-01 BMatC= 5.10D-11 BMatP= 2.88D-10
 IDIUse=1 WtCom= 1.00D+00 WtEn= 0.00D+00
 Coeff-Com: -0.107D-04 0.121D-04-0.335D-05 0.108D-05 0.203D-05 0.347D-04
 Coeff-Com:  0.858D-05-0.355D-04-0.720D-04 0.341D-04-0.479D-03 0.493D-03
 Coeff-Com:  0.199D-02 0.624D-02-0.129D-02-0.217D-01-0.500D-01 0.283D-01
 Coeff-Com:  0.257D+00 0.779D+00
 Coeff:     -0.107D-04 0.121D-04-0.335D-05 0.108D-05 0.203D-05 0.347D-04
 Coeff:      0.858D-05-0.355D-04-0.720D-04 0.341D-04-0.479D-03 0.493D-03
 Coeff:      0.199D-02 0.624D-02-0.129D-02-0.217D-01-0.500D-01 0.283D-01
 Coeff:      0.257D+00 0.779D+00
 Gap=     0.156 Goal=   None    Shift=    0.000
 Gap=     0.160 Goal=   None    Shift=    0.000
 RMSDP=8.82D-09 MaxDP=1.29D-06 DE=-3.86D-10 OVMax= 2.27D-06

 Cycle  23  Pass 1  IDiag  1:
 RMSU=  8.05D-09    CP:  1.00D+00  1.18D+00
 E= -6772.30665785429     Delta-E=       -0.000000000193 Rises=F Damp=F
 DIIS: error= 2.76D-08 at cycle  23 NSaved=  20.
 NSaved=20 IEnMin= 1 EnMin= -6772.43307153926     IErMin=20 ErrMin= 2.76D-08
 ErrMax= 2.76D-08  0.00D+00 EMaxC= 1.00D-01 BMatC= 1.20D-11 BMatP= 5.10D-11
 IDIUse=1 WtCom= 1.00D+00 WtEn= 0.00D+00
 Coeff-Com: -0.129D-05 0.145D-05-0.201D-05 0.760D-06-0.313D-05 0.214D-04
 Coeff-Com:  0.104D-03 0.131D-03 0.103D-02-0.106D-02-0.510D-02-0.882D-02
 Coeff-Com:  0.924D-02 0.501D-01 0.192D-01-0.842D-01-0.137D+00-0.560D-01
 Coeff-Com:  0.386D+00 0.827D+00
 Coeff:     -0.129D-05 0.145D-05-0.201D-05 0.760D-06-0.313D-05 0.214D-04
 Coeff:      0.104D-03 0.131D-03 0.103D-02-0.106D-02-0.510D-02-0.882D-02
 Coeff:      0.924D-02 0.501D-01 0.192D-01-0.842D-01-0.137D+00-0.560D-01
 Coeff:      0.386D+00 0.827D+00
 Gap=     0.156 Goal=   None    Shift=    0.000
 Gap=     0.160 Goal=   None    Shift=    0.000
 RMSDP=5.19D-09 MaxDP=1.03D-06 DE=-1.93D-10 OVMax= 1.61D-06

 Cycle  24  Pass 1  IDiag  1:
 RMSU=  3.81D-09    CP:  1.00D+00  1.33D+00  1.24D+00
 E= -6772.30665785389     Delta-E=        0.000000000402 Rises=F Damp=F
 DIIS: error= 1.78D-08 at cycle  24 NSaved=  20.
 NSaved=20 IEnMin= 1 EnMin= -6772.43307153926     IErMin=20 ErrMin= 1.78D-08
 ErrMax= 1.78D-08  0.00D+00 EMaxC= 1.00D-01 BMatC= 2.70D-12 BMatP= 1.20D-11
 IDIUse=1 WtCom= 1.00D+00 WtEn= 0.00D+00
 Coeff-Com:  0.260D-06-0.294D-06-0.111D-05-0.271D-05 0.142D-04 0.717D-04
 Coeff-Com:  0.863D-04 0.492D-03-0.568D-03-0.296D-02-0.489D-02 0.445D-02
 Coeff-Com:  0.285D-01 0.131D-01-0.397D-01-0.810D-01-0.739D-01 0.800D-01
 Coeff-Com:  0.459D+00 0.617D+00
 Coeff:      0.260D-06-0.294D-06-0.111D-05-0.271D-05 0.142D-04 0.717D-04
 Coeff:      0.863D-04 0.492D-03-0.568D-03-0.296D-02-0.489D-02 0.445D-02
 Coeff:      0.285D-01 0.131D-01-0.397D-01-0.810D-01-0.739D-01 0.800D-01
 Coeff:      0.459D+00 0.617D+00
 Gap=     0.156 Goal=   None    Shift=    0.000
 Gap=     0.160 Goal=   None    Shift=    0.000
 RMSDP=1.82D-09 MaxDP=3.25D-07 DE= 4.02D-10 OVMax= 5.34D-07

 SCF Done:  E(UPBEh1PBE) =  -6772.30665785     A.U. after   24 cycles
            NFock= 24  Conv=0.18D-08     -V/T= 2.0013
 <Sx>= 0.0000 <Sy>= 0.0000 <Sz>= 2.5000 <S**2>=13.6425 S= 3.2273
 <L.S>= 0.000000000000E+00
 KE= 6.763583855484D+03 PE=-3.362003343232D+04 EE= 1.130095209982D+04
 Annihilation of the first spin contaminant:
 S**2 before annihilation    13.6425,   after    21.6517
 Leave Link  502 at Wed Sep 10 18:03:06 2025, MaxMem=  3221225472 cpu:           22401.9 elap:            2801.8
 (Enter /mnt/research/peralta/software/gaussian/g16B.03//g16/l601.exe)
 Copying SCF densities to generalized density rwf, IOpCl= 1 IROHF=0.

 **********************************************************************

            Population analysis using the SCF Density.

 **********************************************************************

 Alpha  occ. eigenvalues -- -256.44860-256.44059-256.44050-101.61202-101.61017
 Alpha  occ. eigenvalues -- -101.60773 -30.26152 -30.25272 -30.15741 -26.08805
 Alpha  occ. eigenvalues --  -26.08682 -26.08650 -26.07967 -26.07859 -26.07712
 Alpha  occ. eigenvalues --  -25.99954 -25.99907 -25.99845 -19.20671 -19.20449
 Alpha  occ. eigenvalues --  -19.20392 -19.20132 -19.20100 -19.19535 -19.18301
 Alpha  occ. eigenvalues --  -14.44307 -14.43854 -14.43686 -14.43594 -10.34394
 Alpha  occ. eigenvalues --  -10.34325 -10.30273 -10.30083 -10.27244 -10.27199
 Alpha  occ. eigenvalues --  -10.26934 -10.26504 -10.26369 -10.26101 -10.25748
 Alpha  occ. eigenvalues --  -10.25380 -10.24826 -10.24804 -10.24721 -10.24297
 Alpha  occ. eigenvalues --  -10.24135 -10.23997 -10.22555 -10.22228 -10.18584
 Alpha  occ. eigenvalues --  -10.18562  -9.43445  -9.43214  -9.43104  -7.16283
 Alpha  occ. eigenvalues --   -7.16170  -7.16071  -7.16060  -7.16028  -7.15879
 Alpha  occ. eigenvalues --   -7.15834  -7.15784  -7.15699  -3.70151  -3.69209
 Alpha  occ. eigenvalues --   -3.46114  -2.46344  -2.46117  -2.46052  -2.45453
 Alpha  occ. eigenvalues --   -2.45233  -2.45045  -2.20571  -2.20545  -2.20511
 Alpha  occ. eigenvalues --   -1.09687  -1.08868  -1.01698  -1.01289  -1.00472
 Alpha  occ. eigenvalues --   -1.00332  -0.99882  -0.99633  -0.97522  -0.97187
 Alpha  occ. eigenvalues --   -0.92114  -0.85867  -0.85753  -0.83693  -0.83667
 Alpha  occ. eigenvalues --   -0.78683  -0.78556  -0.77867  -0.77354  -0.76944
 Alpha  occ. eigenvalues --   -0.76749  -0.74378  -0.74152  -0.73702  -0.70311
 Alpha  occ. eigenvalues --   -0.70038  -0.68989  -0.68884  -0.65888  -0.65832
 Alpha  occ. eigenvalues --   -0.63261  -0.62606  -0.58599  -0.58363  -0.57821
 Alpha  occ. eigenvalues --   -0.56523  -0.54596  -0.54383  -0.53807  -0.53493
 Alpha  occ. eigenvalues --   -0.52962  -0.52815  -0.52622  -0.52001  -0.51599
 Alpha  occ. eigenvalues --   -0.50718  -0.50439  -0.50061  -0.49732  -0.49148
 Alpha  occ. eigenvalues --   -0.48881  -0.48682  -0.48178  -0.47813  -0.47434
 Alpha  occ. eigenvalues --   -0.47269  -0.46771  -0.46549  -0.46227  -0.46087
 Alpha  occ. eigenvalues --   -0.45628  -0.45495  -0.45319  -0.45135  -0.44925
 Alpha  occ. eigenvalues --   -0.44594  -0.44394  -0.44282  -0.43917  -0.43735
 Alpha  occ. eigenvalues --   -0.43430  -0.42946  -0.42626  -0.42255  -0.42100
 Alpha  occ. eigenvalues --   -0.41986  -0.40951  -0.40731  -0.40267  -0.40254
 Alpha  occ. eigenvalues --   -0.39760  -0.39475  -0.39312  -0.38936  -0.38545
 Alpha  occ. eigenvalues --   -0.38297  -0.36000  -0.34737  -0.33673  -0.32980
 Alpha  occ. eigenvalues --   -0.32702  -0.32495  -0.32200  -0.31759  -0.30961
 Alpha  occ. eigenvalues --   -0.30628  -0.30396  -0.29857  -0.29478  -0.28847
 Alpha  occ. eigenvalues --   -0.28721  -0.28498  -0.28214  -0.28134  -0.27366
 Alpha  occ. eigenvalues --   -0.26769  -0.26182  -0.25856  -0.25564  -0.25502
 Alpha  occ. eigenvalues --   -0.25261  -0.25111  -0.25006  -0.24850  -0.24525
 Alpha  occ. eigenvalues --   -0.23089
 Alpha virt. eigenvalues --   -0.07472  -0.06554  -0.06268  -0.04273  -0.03946
 Alpha virt. eigenvalues --   -0.02665  -0.02546  -0.02332  -0.01897   0.00832
 Alpha virt. eigenvalues --    0.01205   0.02788   0.03899   0.04207   0.08952
 Alpha virt. eigenvalues --    0.09985   0.10694   0.10975   0.11536   0.12084
 Alpha virt. eigenvalues --    0.12239   0.12514   0.12930   0.13407   0.13634
 Alpha virt. eigenvalues --    0.14237   0.14588   0.14908   0.15181   0.15753
 Alpha virt. eigenvalues --    0.15818   0.16336   0.16413   0.16446   0.16886
 Alpha virt. eigenvalues --    0.17383   0.17715   0.18255   0.18813   0.19142
 Alpha virt. eigenvalues --    0.19847   0.20049   0.20223   0.20327   0.20495
 Alpha virt. eigenvalues --    0.20872   0.20981   0.21122   0.21564   0.21747
 Alpha virt. eigenvalues --    0.22130   0.22477   0.22565   0.22835   0.23044
 Alpha virt. eigenvalues --    0.23192   0.23455   0.23789   0.23881   0.24219
 Alpha virt. eigenvalues --    0.24251   0.25135   0.25319   0.25615   0.26178
 Alpha virt. eigenvalues --    0.26273   0.26563   0.26761   0.27347   0.27747
 Alpha virt. eigenvalues --    0.28097   0.28809   0.29015   0.29316   0.29872
 Alpha virt. eigenvalues --    0.30623   0.31174   0.31241   0.31641   0.31936
 Alpha virt. eigenvalues --    0.32288   0.32301   0.32654   0.33145   0.34170
 Alpha virt. eigenvalues --    0.34523   0.34796   0.35576   0.36003   0.36354
 Alpha virt. eigenvalues --    0.36485   0.37262   0.37463   0.38214   0.39056
 Alpha virt. eigenvalues --    0.39576   0.40952   0.41529   0.42242   0.43206
 Alpha virt. eigenvalues --    0.43894   0.44471   0.45056   0.45686   0.46096
 Alpha virt. eigenvalues --    0.47561   0.47870   0.48498   0.48956   0.49744
 Alpha virt. eigenvalues --    0.50471   0.50904   0.51403   0.52023   0.52366
 Alpha virt. eigenvalues --    0.52983   0.53169   0.53861   0.54033   0.54527
 Alpha virt. eigenvalues --    0.54813   0.55183   0.55890   0.56149   0.56643
 Alpha virt. eigenvalues --    0.57087   0.57141   0.57701   0.58132   0.58614
 Alpha virt. eigenvalues --    0.58763   0.59432   0.60182   0.60345   0.61021
 Alpha virt. eigenvalues --    0.61222   0.61381   0.61469   0.61861   0.62202
 Alpha virt. eigenvalues --    0.62337   0.62976   0.63280   0.63383   0.63570
 Alpha virt. eigenvalues --    0.64353   0.64534   0.64988   0.65535   0.66052
 Alpha virt. eigenvalues --    0.66724   0.66950   0.67083   0.67619   0.68355
 Alpha virt. eigenvalues --    0.68835   0.69822   0.70677   0.70920   0.71437
 Alpha virt. eigenvalues --    0.72192   0.72956   0.73347   0.74288   0.74374
 Alpha virt. eigenvalues --    0.75600   0.75906   0.76236   0.77148   0.77694
 Alpha virt. eigenvalues --    0.78156   0.79330   0.80514   0.81185   0.81885
 Alpha virt. eigenvalues --    0.82576   0.83354   0.83806   0.84332   0.85001
 Alpha virt. eigenvalues --    0.85198   0.85441   0.86691   0.87322   0.87760
 Alpha virt. eigenvalues --    0.88158   0.88435   0.89311   0.89428   0.89783
 Alpha virt. eigenvalues --    0.90350   0.90825   0.91023   0.91216   0.91401
 Alpha virt. eigenvalues --    0.92088   0.92397   0.92547   0.92685   0.93605
 Alpha virt. eigenvalues --    0.94023   0.94404   0.94830   0.94970   0.95367
 Alpha virt. eigenvalues --    0.95778   0.96072   0.96437   0.97151   0.97217
 Alpha virt. eigenvalues --    0.97712   0.98029   0.98197   0.98573   0.98951
 Alpha virt. eigenvalues --    0.99849   1.00133   1.00561   1.00792   1.00964
 Alpha virt. eigenvalues --    1.01619   1.01880   1.02217   1.02604   1.02737
 Alpha virt. eigenvalues --    1.03358   1.03900   1.04224   1.04797   1.05095
 Alpha virt. eigenvalues --    1.05175   1.05649   1.05841   1.06617   1.06950
 Alpha virt. eigenvalues --    1.07354   1.08562   1.08618   1.08792   1.09395
 Alpha virt. eigenvalues --    1.09739   1.09864   1.11176   1.11371   1.11778
 Alpha virt. eigenvalues --    1.13366   1.13578   1.13877   1.14412   1.14600
 Alpha virt. eigenvalues --    1.15868   1.16509   1.17251   1.17512   1.17971
 Alpha virt. eigenvalues --    1.18226   1.18937   1.19925   1.20406   1.20735
 Alpha virt. eigenvalues --    1.21379   1.22212   1.22810   1.23105   1.23414
 Alpha virt. eigenvalues --    1.23830   1.24113   1.24993   1.25729   1.26656
 Alpha virt. eigenvalues --    1.27402   1.28712   1.29287   1.29885   1.30891
 Alpha virt. eigenvalues --    1.31117   1.31763   1.32039   1.32685   1.33219
 Alpha virt. eigenvalues --    1.33582   1.34289   1.34531   1.35310   1.35969
 Alpha virt. eigenvalues --    1.37008   1.37204   1.38102   1.38581   1.39041
 Alpha virt. eigenvalues --    1.39257   1.39820   1.40085   1.40948   1.41540
 Alpha virt. eigenvalues --    1.42854   1.43147   1.43623   1.44135   1.44927
 Alpha virt. eigenvalues --    1.45289   1.45527   1.46781   1.48034   1.48810
 Alpha virt. eigenvalues --    1.49648   1.50428   1.51663   1.52021   1.53061
 Alpha virt. eigenvalues --    1.54026   1.54451   1.55266   1.55442   1.56495
 Alpha virt. eigenvalues --    1.57797   1.57989   1.58453   1.59278   1.59675
 Alpha virt. eigenvalues --    1.60406   1.60935   1.61579   1.61746   1.62727
 Alpha virt. eigenvalues --    1.63322   1.64409   1.64920   1.67180   1.67758
 Alpha virt. eigenvalues --    1.68154   1.68505   1.69551   1.69704   1.71347
 Alpha virt. eigenvalues --    1.71565   1.72513   1.72801   1.74082   1.75315
 Alpha virt. eigenvalues --    1.75489   1.75778   1.76816   1.77178   1.78276
 Alpha virt. eigenvalues --    1.78895   1.79758   1.80182   1.80962   1.81728
 Alpha virt. eigenvalues --    1.82913   1.83428   1.83865   1.84659   1.85161
 Alpha virt. eigenvalues --    1.86692   1.87287   1.88122   1.88527   1.89197
 Alpha virt. eigenvalues --    1.89538   1.90194   1.90770   1.91444   1.91800
 Alpha virt. eigenvalues --    1.92393   1.93051   1.94147   1.94617   1.95552
 Alpha virt. eigenvalues --    1.96011   1.96497   1.96900   1.97221   1.97987
 Alpha virt. eigenvalues --    1.98045   1.98480   1.98888   1.99144   1.99344
 Alpha virt. eigenvalues --    1.99877   2.00504   2.00783   2.00990   2.01558
 Alpha virt. eigenvalues --    2.02129   2.02508   2.03045   2.03529   2.03904
 Alpha virt. eigenvalues --    2.04261   2.04678   2.04933   2.05336   2.05735
 Alpha virt. eigenvalues --    2.06305   2.06649   2.07235   2.07811   2.08552
 Alpha virt. eigenvalues --    2.09075   2.09967   2.10854   2.11214   2.11283
 Alpha virt. eigenvalues --    2.11694   2.12010   2.12598   2.13020   2.13843
 Alpha virt. eigenvalues --    2.14499   2.15132   2.15274   2.16513   2.16915
 Alpha virt. eigenvalues --    2.17350   2.18716   2.19207   2.19640   2.20622
 Alpha virt. eigenvalues --    2.21384   2.21760   2.22650   2.23941   2.24335
 Alpha virt. eigenvalues --    2.24831   2.25207   2.25296   2.25672   2.26394
 Alpha virt. eigenvalues --    2.26797   2.27060   2.28078   2.28808   2.29103
 Alpha virt. eigenvalues --    2.29322   2.29984   2.30428   2.31310   2.31728
 Alpha virt. eigenvalues --    2.31916   2.32141   2.32808   2.33470   2.33777
 Alpha virt. eigenvalues --    2.34043   2.34857   2.35501   2.36180   2.36925
 Alpha virt. eigenvalues --    2.37444   2.37767   2.39588   2.39901   2.40049
 Alpha virt. eigenvalues --    2.40717   2.40965   2.41229   2.42284   2.43141
 Alpha virt. eigenvalues --    2.44142   2.44555   2.44834   2.45638   2.47585
 Alpha virt. eigenvalues --    2.47905   2.48920   2.49173   2.49962   2.49999
 Alpha virt. eigenvalues --    2.50137   2.50413   2.51346   2.51446   2.52154
 Alpha virt. eigenvalues --    2.52686   2.53502   2.54201   2.54913   2.55541
 Alpha virt. eigenvalues --    2.58280   2.58757   2.59862   2.60370   2.60670
 Alpha virt. eigenvalues --    2.60837   2.61729   2.63215   2.64096   2.64759
 Alpha virt. eigenvalues --    2.65241   2.66748   2.67252   2.67747   2.68309
 Alpha virt. eigenvalues --    2.68682   2.69331   2.69483   2.71173   2.71390
 Alpha virt. eigenvalues --    2.71784   2.71913   2.72548   2.72831   2.73979
 Alpha virt. eigenvalues --    2.74944   2.75353   2.76543   2.76808   2.77378
 Alpha virt. eigenvalues --    2.77901   2.78677   2.79892   2.80597   2.81132
 Alpha virt. eigenvalues --    2.81731   2.82283   2.82520   2.83918   2.84504
 Alpha virt. eigenvalues --    2.84888   2.86023   2.86080   2.86658   2.86911
 Alpha virt. eigenvalues --    2.87389   2.87807   2.88899   2.89095   2.90022
 Alpha virt. eigenvalues --    2.90362   2.90773   2.91031   2.92241   2.92840
 Alpha virt. eigenvalues --    2.94828   2.95245   2.95808   2.96973   2.97932
 Alpha virt. eigenvalues --    2.98204   2.99019   2.99172   3.00480   3.00831
 Alpha virt. eigenvalues --    3.02240   3.02924   3.03594   3.04470   3.06821
 Alpha virt. eigenvalues --    3.07979   3.08723   3.09994   3.10137   3.10373
 Alpha virt. eigenvalues --    3.11321   3.12655   3.12805   3.13170   3.14319
 Alpha virt. eigenvalues --    3.14740   3.16916   3.17071   3.18291   3.19075
 Alpha virt. eigenvalues --    3.20230   3.21481   3.21941   3.23088   3.23925
 Alpha virt. eigenvalues --    3.24659   3.25518   3.27875   3.30924   3.31520
 Alpha virt. eigenvalues --    3.33048   3.33696   3.34515   3.35234   3.36547
 Alpha virt. eigenvalues --    3.38157   3.50362   3.51497   3.55483   3.55650
 Alpha virt. eigenvalues --    3.60110   3.63127   3.63391   3.63486   3.63989
 Alpha virt. eigenvalues --    3.64230   3.64617   3.66782   3.66975   3.67513
 Alpha virt. eigenvalues --    3.68052   3.68183   3.70388   3.70763   3.73600
 Alpha virt. eigenvalues --    3.73755   3.74031   3.74108   3.74577   3.75402
 Alpha virt. eigenvalues --    3.75543   3.76581   3.76740   3.76835   3.77305
 Alpha virt. eigenvalues --    3.78803   3.79145   3.83505   3.91249   3.91363
 Alpha virt. eigenvalues --    4.24913   4.25067   5.73302   5.73748   5.75917
 Alpha virt. eigenvalues --    5.79183   5.84249   5.85432   5.90603   5.98661
 Alpha virt. eigenvalues --    5.99773   6.01023   6.05335   6.14776   6.18376
 Alpha virt. eigenvalues --    6.21104   6.28120   8.10461   8.14235   8.17289
 Alpha virt. eigenvalues --    8.20222   8.26681   8.29692   8.35119   8.39390
 Alpha virt. eigenvalues --    8.52310  26.22675  26.32738  26.44059  34.02692
 Alpha virt. eigenvalues --   34.06543  34.09039  34.10951  34.14422  34.16559
 Alpha virt. eigenvalues --   34.20909  34.25944  34.33658 147.32675 147.40403
 Alpha virt. eigenvalues --  147.47154 777.34938 777.41773 777.47684
  Beta  occ. eigenvalues -- -256.44927-256.44114-256.43994-101.61335-101.60886
  Beta  occ. eigenvalues -- -101.60609 -30.25230 -30.16484 -30.15777 -26.07938
  Beta  occ. eigenvalues --  -26.07803 -26.07667 -26.00695 -26.00681 -26.00615
  Beta  occ. eigenvalues --  -25.99987 -25.99948 -25.99885 -19.20413 -19.20349
  Beta  occ. eigenvalues --  -19.20143 -19.20123 -19.19534 -19.19292 -19.17955
  Beta  occ. eigenvalues --  -14.44090 -14.43907 -14.43827 -14.43620 -10.34389
  Beta  occ. eigenvalues --  -10.34331 -10.30277 -10.30078 -10.27245 -10.27196
  Beta  occ. eigenvalues --  -10.26925 -10.26488 -10.26369 -10.26100 -10.25743
  Beta  occ. eigenvalues --  -10.25383 -10.24835 -10.24795 -10.24711 -10.24284
  Beta  occ. eigenvalues --  -10.24146 -10.23987 -10.22557 -10.22225 -10.18562
  Beta  occ. eigenvalues --  -10.18555  -9.43579  -9.43082  -9.42941  -7.16529
  Beta  occ. eigenvalues --   -7.16242  -7.16199  -7.15920  -7.15769  -7.15714
  Beta  occ. eigenvalues --   -7.15671  -7.15551  -7.15498  -3.69156  -3.46666
  Beta  occ. eigenvalues --   -3.46148  -2.45418  -2.45159  -2.44995  -2.21165
  Beta  occ. eigenvalues --   -2.21024  -2.20951  -2.20607  -2.20575  -2.20535
  Beta  occ. eigenvalues --   -1.09153  -1.08832  -1.01448  -1.01028  -1.00025
  Beta  occ. eigenvalues --   -0.99794  -0.99709  -0.99329  -0.97416  -0.96979
  Beta  occ. eigenvalues --   -0.91224  -0.85838  -0.85781  -0.83706  -0.83633
  Beta  occ. eigenvalues --   -0.78559  -0.78451  -0.77704  -0.77356  -0.76904
  Beta  occ. eigenvalues --   -0.76788  -0.74690  -0.73188  -0.73147  -0.70135
  Beta  occ. eigenvalues --   -0.70115  -0.68949  -0.68882  -0.65984  -0.65634
  Beta  occ. eigenvalues --   -0.62801  -0.62704  -0.58582  -0.58326  -0.56804
  Beta  occ. eigenvalues --   -0.56283  -0.54525  -0.54381  -0.53619  -0.53553
  Beta  occ. eigenvalues --   -0.52633  -0.52356  -0.51868  -0.51723  -0.50895
  Beta  occ. eigenvalues --   -0.50550  -0.50238  -0.49635  -0.48542  -0.48295
  Beta  occ. eigenvalues --   -0.48073  -0.47846  -0.47581  -0.47413  -0.47153
  Beta  occ. eigenvalues --   -0.46961  -0.46505  -0.46321  -0.45883  -0.45526
  Beta  occ. eigenvalues --   -0.45178  -0.45049  -0.44705  -0.44271  -0.43747
  Beta  occ. eigenvalues --   -0.43702  -0.43268  -0.42823  -0.42382  -0.42347
  Beta  occ. eigenvalues --   -0.42226  -0.41884  -0.41202  -0.40875  -0.40488
  Beta  occ. eigenvalues --   -0.39908  -0.39834  -0.39586  -0.39179  -0.38919
  Beta  occ. eigenvalues --   -0.38316  -0.36026  -0.34831  -0.34262  -0.33305
  Beta  occ. eigenvalues --   -0.32861  -0.32538  -0.32139  -0.31853  -0.31622
  Beta  occ. eigenvalues --   -0.31019  -0.30813  -0.30376  -0.29641  -0.29324
  Beta  occ. eigenvalues --   -0.28975  -0.28838  -0.28415  -0.28219  -0.27829
  Beta  occ. eigenvalues --   -0.27520  -0.27079  -0.26146  -0.25971  -0.25746
  Beta  occ. eigenvalues --   -0.25570  -0.25285  -0.24988  -0.24683  -0.24577
  Beta  occ. eigenvalues --   -0.23583
  Beta virt. eigenvalues --   -0.07606  -0.07414  -0.07371  -0.06776  -0.06304
  Beta virt. eigenvalues --   -0.06148  -0.04701  -0.03734  -0.03278  -0.02535
  Beta virt. eigenvalues --   -0.02402  -0.02281  -0.02056  -0.01652   0.00853
  Beta virt. eigenvalues --    0.01216   0.02837   0.04221   0.04605   0.08984
  Beta virt. eigenvalues --    0.10132   0.10743   0.11052   0.11605   0.12239
  Beta virt. eigenvalues --    0.12314   0.12500   0.12963   0.13428   0.13677
  Beta virt. eigenvalues --    0.14282   0.14572   0.15020   0.15240   0.15813
  Beta virt. eigenvalues --    0.15936   0.16358   0.16395   0.16615   0.16926
  Beta virt. eigenvalues --    0.17516   0.17759   0.18332   0.19019   0.19316
  Beta virt. eigenvalues --    0.19929   0.20055   0.20387   0.20415   0.20769
  Beta virt. eigenvalues --    0.20940   0.21091   0.21168   0.21525   0.21788
  Beta virt. eigenvalues --    0.22287   0.22382   0.22547   0.22890   0.22997
  Beta virt. eigenvalues --    0.23489   0.23664   0.24013   0.24135   0.24406
  Beta virt. eigenvalues --    0.24755   0.25320   0.25385   0.25725   0.26332
  Beta virt. eigenvalues --    0.26378   0.26875   0.27255   0.27573   0.27724
  Beta virt. eigenvalues --    0.28297   0.28981   0.29225   0.29753   0.30311
  Beta virt. eigenvalues --    0.30945   0.31160   0.31712   0.31935   0.32238
  Beta virt. eigenvalues --    0.32355   0.32833   0.33136   0.33913   0.34451
  Beta virt. eigenvalues --    0.34813   0.35050   0.36049   0.36826   0.37005
  Beta virt. eigenvalues --    0.37411   0.37533   0.37960   0.38397   0.38976
  Beta virt. eigenvalues --    0.40585   0.41348   0.41530   0.42899   0.43520
  Beta virt. eigenvalues --    0.44075   0.45140   0.45780   0.45916   0.46250
  Beta virt. eigenvalues --    0.47688   0.48146   0.48946   0.49227   0.50003
  Beta virt. eigenvalues --    0.50446   0.50956   0.51569   0.52256   0.52733
  Beta virt. eigenvalues --    0.53006   0.53246   0.54041   0.54268   0.54597
  Beta virt. eigenvalues --    0.55053   0.55290   0.55981   0.56284   0.56790
  Beta virt. eigenvalues --    0.57067   0.57349   0.57921   0.58349   0.58664
  Beta virt. eigenvalues --    0.58970   0.59641   0.60241   0.60551   0.61072
  Beta virt. eigenvalues --    0.61313   0.61426   0.61558   0.61967   0.62285
  Beta virt. eigenvalues --    0.62538   0.63125   0.63462   0.63476   0.63612
  Beta virt. eigenvalues --    0.64550   0.64662   0.65189   0.65768   0.66114
  Beta virt. eigenvalues --    0.66897   0.67057   0.67232   0.67850   0.68491
  Beta virt. eigenvalues --    0.68958   0.69885   0.70628   0.70902   0.71525
  Beta virt. eigenvalues --    0.72274   0.73175   0.73398   0.74343   0.74574
  Beta virt. eigenvalues --    0.75722   0.75961   0.76500   0.77408   0.78027
  Beta virt. eigenvalues --    0.78251   0.79582   0.80585   0.81327   0.82172
  Beta virt. eigenvalues --    0.82475   0.83494   0.83966   0.84491   0.85049
  Beta virt. eigenvalues --    0.85429   0.85700   0.86886   0.87451   0.87883
  Beta virt. eigenvalues --    0.88217   0.88534   0.89369   0.89568   0.89854
  Beta virt. eigenvalues --    0.90462   0.90814   0.91196   0.91337   0.91361
  Beta virt. eigenvalues --    0.92105   0.92389   0.92657   0.92800   0.93831
  Beta virt. eigenvalues --    0.94082   0.94423   0.94725   0.95197   0.95429
  Beta virt. eigenvalues --    0.95862   0.96178   0.96472   0.97201   0.97440
  Beta virt. eigenvalues --    0.97794   0.98188   0.98563   0.98868   0.99038
  Beta virt. eigenvalues --    0.99914   1.00283   1.00775   1.00883   1.01045
  Beta virt. eigenvalues --    1.01955   1.02065   1.02385   1.02960   1.03093
  Beta virt. eigenvalues --    1.03589   1.04141   1.04415   1.04872   1.05014
  Beta virt. eigenvalues --    1.05431   1.05758   1.05875   1.06862   1.07254
  Beta virt. eigenvalues --    1.07569   1.08518   1.08980   1.09140   1.09490
  Beta virt. eigenvalues --    1.09744   1.10179   1.11112   1.11789   1.11957
  Beta virt. eigenvalues --    1.13581   1.13844   1.13893   1.15002   1.15301
  Beta virt. eigenvalues --    1.16329   1.16801   1.17661   1.17783   1.18239
  Beta virt. eigenvalues --    1.19046   1.19502   1.19917   1.20916   1.21257
  Beta virt. eigenvalues --    1.21726   1.22742   1.23020   1.23320   1.23620
  Beta virt. eigenvalues --    1.24099   1.24396   1.25361   1.26324   1.27137
  Beta virt. eigenvalues --    1.27360   1.28853   1.29294   1.31138   1.31607
  Beta virt. eigenvalues --    1.31900   1.32340   1.32596   1.33211   1.33504
  Beta virt. eigenvalues --    1.33937   1.35214   1.35482   1.36278   1.37069
  Beta virt. eigenvalues --    1.37545   1.38150   1.38572   1.38659   1.39110
  Beta virt. eigenvalues --    1.39619   1.40074   1.41142   1.41412   1.42015
  Beta virt. eigenvalues --    1.43472   1.43973   1.44376   1.45274   1.45771
  Beta virt. eigenvalues --    1.46833   1.47184   1.47350   1.48372   1.49967
  Beta virt. eigenvalues --    1.50130   1.51103   1.52177   1.53120   1.53783
  Beta virt. eigenvalues --    1.54251   1.55247   1.55605   1.56159   1.57430
  Beta virt. eigenvalues --    1.57916   1.58746   1.59126   1.59462   1.60130
  Beta virt. eigenvalues --    1.60762   1.61375   1.61664   1.61881   1.63086
  Beta virt. eigenvalues --    1.63622   1.65459   1.65679   1.67445   1.68319
  Beta virt. eigenvalues --    1.68377   1.69087   1.69934   1.70499   1.71847
  Beta virt. eigenvalues --    1.72011   1.72722   1.73243   1.74455   1.75451
  Beta virt. eigenvalues --    1.76192   1.76282   1.76813   1.77598   1.78592
  Beta virt. eigenvalues --    1.79057   1.79866   1.80211   1.81227   1.81866
  Beta virt. eigenvalues --    1.83045   1.83645   1.84485   1.85040   1.86050
  Beta virt. eigenvalues --    1.86882   1.87091   1.88578   1.88735   1.89543
  Beta virt. eigenvalues --    1.89823   1.90347   1.91034   1.91823   1.92180
  Beta virt. eigenvalues --    1.92493   1.93308   1.94043   1.94849   1.95806
  Beta virt. eigenvalues --    1.96094   1.96852   1.97170   1.97401   1.98374
  Beta virt. eigenvalues --    1.98401   1.98864   1.98925   1.99341   1.99792
  Beta virt. eigenvalues --    2.00045   2.00644   2.00848   2.01176   2.01771
  Beta virt. eigenvalues --    2.02077   2.02720   2.03128   2.03992   2.04683
  Beta virt. eigenvalues --    2.04817   2.04983   2.05446   2.05618   2.05867
  Beta virt. eigenvalues --    2.06216   2.06983   2.07987   2.08335   2.08939
  Beta virt. eigenvalues --    2.09992   2.10688   2.11062   2.11226   2.11418
  Beta virt. eigenvalues --    2.11949   2.12589   2.13082   2.13268   2.14457
  Beta virt. eigenvalues --    2.14733   2.15260   2.15891   2.16647   2.17295
  Beta virt. eigenvalues --    2.18144   2.19248   2.19630   2.20635   2.20914
  Beta virt. eigenvalues --    2.21797   2.22253   2.23161   2.24327   2.24488
  Beta virt. eigenvalues --    2.25147   2.25320   2.25730   2.25999   2.26663
  Beta virt. eigenvalues --    2.26960   2.27157   2.28739   2.28762   2.29066
  Beta virt. eigenvalues --    2.29484   2.30143   2.30827   2.31437   2.32067
  Beta virt. eigenvalues --    2.32483   2.32721   2.33370   2.33777   2.34534
  Beta virt. eigenvalues --    2.34703   2.35091   2.35983   2.36324   2.37203
  Beta virt. eigenvalues --    2.37946   2.38440   2.39823   2.40177   2.40721
  Beta virt. eigenvalues --    2.40950   2.41355   2.42110   2.43036   2.43582
  Beta virt. eigenvalues --    2.44505   2.44845   2.45402   2.45723   2.47825
  Beta virt. eigenvalues --    2.48568   2.48971   2.49524   2.49725   2.49997
  Beta virt. eigenvalues --    2.50245   2.50903   2.51500   2.51997   2.52304
  Beta virt. eigenvalues --    2.52967   2.53732   2.54583   2.55658   2.58102
  Beta virt. eigenvalues --    2.58662   2.58850   2.60013   2.60528   2.60684
  Beta virt. eigenvalues --    2.61108   2.62070   2.63634   2.64277   2.64763
  Beta virt. eigenvalues --    2.65490   2.66843   2.67439   2.67820   2.68402
  Beta virt. eigenvalues --    2.68772   2.69401   2.69868   2.71172   2.71554
  Beta virt. eigenvalues --    2.71851   2.72095   2.72652   2.73239   2.74227
  Beta virt. eigenvalues --    2.75034   2.75777   2.76642   2.76693   2.77612
  Beta virt. eigenvalues --    2.77932   2.79545   2.81239   2.81494   2.82327
  Beta virt. eigenvalues --    2.83689   2.84092   2.84840   2.85696   2.85801
  Beta virt. eigenvalues --    2.86217   2.86936   2.87585   2.88084   2.88723
  Beta virt. eigenvalues --    2.89319   2.89696   2.89783   2.90803   2.91215
  Beta virt. eigenvalues --    2.92056   2.92907   2.93678   2.94602   2.95071
  Beta virt. eigenvalues --    2.95523   2.96055   2.96717   2.97300   2.98077
  Beta virt. eigenvalues --    2.98721   2.99057   2.99908   3.00337   3.02338
  Beta virt. eigenvalues --    3.02721   3.03630   3.04095   3.07341   3.07892
  Beta virt. eigenvalues --    3.08243   3.09565   3.10253   3.10483   3.11497
  Beta virt. eigenvalues --    3.12529   3.12951   3.13255   3.13340   3.14157
  Beta virt. eigenvalues --    3.16014   3.17352   3.17357   3.18611   3.21284
  Beta virt. eigenvalues --    3.21617   3.22210   3.22824   3.23730   3.24789
  Beta virt. eigenvalues --    3.25540   3.25927   3.29062   3.32322   3.33272
  Beta virt. eigenvalues --    3.34293   3.34700   3.36581   3.38059   3.38907
  Beta virt. eigenvalues --    3.40069   3.50603   3.51458   3.55525   3.55619
  Beta virt. eigenvalues --    3.60630   3.63336   3.63416   3.63554   3.63925
  Beta virt. eigenvalues --    3.64268   3.64644   3.66769   3.67013   3.67682
  Beta virt. eigenvalues --    3.68137   3.69121   3.69943   3.73004   3.73553
  Beta virt. eigenvalues --    3.73928   3.74046   3.74197   3.75206   3.75488
  Beta virt. eigenvalues --    3.75792   3.76604   3.76838   3.77397   3.78564
  Beta virt. eigenvalues --    3.79132   3.79348   3.85515   3.91269   3.91345
  Beta virt. eigenvalues --    4.24880   4.25100   5.74762   5.81391   5.84408
  Beta virt. eigenvalues --    5.88943   5.89562   5.91580   5.94556   6.00968
  Beta virt. eigenvalues --    6.01349   6.04325   6.14036   6.14754   6.19014
  Beta virt. eigenvalues --    6.28728   6.34785   8.14981   8.20764   8.25337
  Beta virt. eigenvalues --    8.28936   8.30375   8.33925   8.35720   8.46636
  Beta virt. eigenvalues --    8.53370  26.27485  26.36756  26.46795  34.07175
  Beta virt. eigenvalues --   34.11298  34.12047  34.15802  34.17100  34.19163
  Beta virt. eigenvalues --   34.21513  34.29866  34.34899 147.35455 147.41472
  Beta virt. eigenvalues --  147.48740 777.35503 777.41840 777.48024
          Condensed to atoms (all electrons):
          Atomic-Atomic Spin Densities.
 Mulliken charges and spin densities:
               1          2
     1  Fe   0.985439  -4.170374
     2  Fe   0.992220   4.174513
     3  Fe   0.806535   4.259038
     4  O   -0.684753  -0.005292
     5  O   -0.689166   0.218490
     6  O   -0.852901   0.102075
     7  Cl  -0.322307  -0.187336
     8  Cl  -0.339307   0.181495
     9  Cl  -0.291228   0.232797
    10  O   -0.536986  -0.067417
    11  O   -0.545591   0.081605
    12  O   -0.500755   0.063464
    13  O   -0.487075   0.076991
    14  N   -0.549983  -0.064366
    15  N   -0.523209  -0.061278
    16  N   -0.528720   0.061453
    17  N   -0.559332   0.061944
    18  C    0.046779   0.003926
    19  C    0.175405  -0.003081
    20  H    0.172747   0.000576
    21  C    0.589911   0.001514
    22  C   -0.099169   0.004134
    23  H    0.156151  -0.000524
    24  H    0.130647  -0.000217
    25  C   -0.093460   0.001119
    26  H    0.201401  -0.000082
    27  H    0.141424   0.001453
    28  C    0.040576   0.003059
    29  C    0.265882  -0.000928
    30  C    0.172624   0.004189
    31  H    0.173850  -0.000428
    32  C   -0.102237   0.004972
    33  H    0.161237   0.000096
    34  H    0.132511   0.003125
    35  C   -0.139629   0.004764
    36  H    0.124486   0.000579
    37  C   -0.089246  -0.001057
    38  H    0.203931  -0.000055
    39  H    0.134346  -0.001493
    40  C    0.258989   0.001886
    41  C    0.584857  -0.001924
    42  C   -0.202714  -0.001743
    43  H    0.122798   0.002886
    44  H    0.192653   0.000624
    45  H    0.161658   0.000294
    46  C   -0.199331   0.001945
    47  H    0.120978  -0.002983
    48  H    0.189345  -0.000608
    49  H    0.160171  -0.000260
    50  C   -0.048130  -0.002178
    51  H    0.125023   0.000041
[...]
 
              Baa    -0.3300   -17.274    -6.164    -5.762 -0.5057  0.7938  0.3378
     7 Cl(35) Bbb     0.1387     7.258     2.590     2.421  0.3304 -0.1835  0.9258
              Bcc     0.1914    10.016     3.574     3.341  0.7969  0.5798 -0.1694
 
              Baa    -0.1870    -9.788    -3.493    -3.265  0.3706  0.7281  0.5766
     8 Cl(35) Bbb    -0.1810    -9.472    -3.380    -3.159 -0.6582 -0.2322  0.7161
              Bcc     0.3680    19.260     6.873     6.425  0.6553 -0.6449  0.3932
 
              Baa    -0.2387   -12.491    -4.457    -4.166  0.3624  0.3486  0.8644
     9 Cl(35) Bbb    -0.0940    -4.918    -1.755    -1.640  0.6429  0.5780 -0.5026
              Bcc     0.3326    17.408     6.212     5.807 -0.6748  0.7378 -0.0146
 
              Baa    -0.3657    26.462     9.442     8.827  0.4942  0.0934  0.8643
    10 O(17)  Bbb     0.1486   -10.756    -3.838    -3.588  0.8693 -0.0444 -0.4923
              Bcc     0.2171   -15.706    -5.604    -5.239 -0.0076  0.9946 -0.1031
 
              Baa    -0.1965    14.218     5.073     4.743  0.9640  0.0327 -0.2641
    11 O(17)  Bbb    -0.1560    11.290     4.028     3.766 -0.1439  0.8988 -0.4140
              Bcc     0.3525   -25.508    -9.102    -8.508  0.2238  0.4371  0.8711
 
              Baa    -0.2118    15.327     5.469     5.112  0.1546  0.9506 -0.2690
    12 O(17)  Bbb    -0.1615    11.689     4.171     3.899  0.8834 -0.2550 -0.3933
              Bcc     0.3734   -27.016    -9.640    -9.012  0.4425  0.1768  0.8792
 
              Baa    -0.1784    12.906     4.605     4.305  0.8954  0.3418 -0.2855
    13 O(17)  Bbb    -0.1556    11.259     4.017     3.755 -0.4205  0.8601 -0.2890
              Bcc     0.3339   -24.164    -8.622    -8.060  0.1467  0.3787  0.9138
 
              Baa    -0.2559    -9.868    -3.521    -3.292  0.7950  0.3810 -0.4720
    14 N(14)  Bbb     0.1230     4.743     1.693     1.582  0.4860  0.0657  0.8715
              Bcc     0.1329     5.125     1.829     1.709 -0.3630  0.9222  0.1329
 
              Baa    -0.2464    -9.504    -3.391    -3.170  0.2415 -0.0889  0.9663
    15 N(14)  Bbb     0.1022     3.943     1.407     1.315  0.7215 -0.6494 -0.2401
              Bcc     0.1442     5.561     1.984     1.855  0.6489  0.7552 -0.0927
 
              Baa    -0.1533    -5.914    -2.110    -1.973  0.6903  0.7101 -0.1391
    16 N(14)  Bbb    -0.1091    -4.206    -1.501    -1.403  0.6855 -0.5802  0.4398
              Bcc     0.2624    10.120     3.611     3.376 -0.2315  0.3989  0.8873
 
              Baa    -0.1380    -5.322    -1.899    -1.775  0.1605  0.4718  0.8670
    17 N(14)  Bbb    -0.1278    -4.928    -1.758    -1.644  0.7620 -0.6175  0.1949
              Bcc     0.2657    10.249     3.657     3.419  0.6274  0.6294 -0.4586
 
              Baa    -0.0614    -8.242    -2.941    -2.749 -0.6643  0.7307  0.1574
    18 C(13)  Bbb    -0.0030    -0.406    -0.145    -0.135  0.2913  0.0592  0.9548
              Bcc     0.0644     8.648     3.086     2.885  0.6884  0.6801 -0.2522
 
              Baa    -0.0392    -5.260    -1.877    -1.755 -0.4166 -0.6232  0.6618
    19 C(13)  Bbb    -0.0191    -2.567    -0.916    -0.856  0.8960 -0.4045  0.1832
              Bcc     0.0583     7.827     2.793     2.611  0.1535  0.6694  0.7269
 
              Baa    -0.0564   -30.078   -10.732   -10.033 -0.4879 -0.3924  0.7798
    20 H(1)   Bbb    -0.0035    -1.889    -0.674    -0.630  0.8172 -0.5194  0.2499
              Bcc     0.0599    31.966    11.406    10.663  0.3069  0.7591  0.5740
 
              Baa    -0.0840   -11.274    -4.023    -3.761  0.3034 -0.6240  0.7201
    21 C(13)  Bbb     0.0004     0.056     0.020     0.019  0.8197 -0.2145 -0.5312
              Bcc     0.0836    11.218     4.003     3.742  0.4859  0.7514  0.4464
 
              Baa    -0.0435    -5.839    -2.083    -1.948  0.8441 -0.3220 -0.4288
    22 C(13)  Bbb     0.0120     1.613     0.576     0.538  0.4871  0.1262  0.8642
              Bcc     0.0315     4.226     1.508     1.410  0.2242  0.9383 -0.2634
 
              Baa    -0.0297   -15.832    -5.649    -5.281 -0.6337  0.3877  0.6694
    23 H(1)   Bbb     0.0078     4.187     1.494     1.397  0.7434  0.0657  0.6656
              Bcc     0.0218    11.644     4.155     3.884  0.2141  0.9194 -0.3299
 
              Baa    -0.0179    -9.566    -3.414    -3.191  0.8882 -0.2896 -0.3567
    24 H(1)   Bbb     0.0047     2.511     0.896     0.838  0.4073  0.1374  0.9029
              Bcc     0.0132     7.056     2.518     2.353  0.2125  0.9472 -0.2400
 
              Baa    -0.0259    -3.481    -1.242    -1.161  0.5813 -0.5794  0.5712
    25 C(13)  Bbb    -0.0224    -3.003    -1.072    -1.002  0.2836  0.8023  0.5252
              Bcc     0.0483     6.485     2.314     2.163  0.7626  0.1433 -0.6307
 
              Baa    -0.0199   -10.601    -3.783    -3.536  0.3090  0.6587  0.6861
    26 H(1)   Bbb    -0.0176    -9.388    -3.350    -3.132 -0.2817  0.7524 -0.5954
              Bcc     0.0375    19.990     7.133     6.668  0.9084  0.0093 -0.4181
 
              Baa    -0.0131    -6.982    -2.491    -2.329  0.5290  0.4194  0.7377
    27 H(1)   Bbb    -0.0119    -6.351    -2.266    -2.119 -0.4613  0.8718 -0.1649
              Bcc     0.0250    13.334     4.758     4.448  0.7123  0.2530 -0.6547
 
              Baa    -0.0574    -7.704    -2.749    -2.570  0.1340  0.2980  0.9451
    28 C(13)  Bbb    -0.0215    -2.884    -1.029    -0.962  0.9473 -0.3185 -0.0339
              Bcc     0.0789    10.588     3.778     3.532  0.2909  0.8999 -0.3250
 
              Baa    -0.0331    -4.443    -1.585    -1.482 -0.2947  0.8879 -0.3532
    29 C(13)  Bbb    -0.0207    -2.777    -0.991    -0.926  0.7688  0.4398  0.4642
              Bcc     0.0538     7.221     2.577     2.409 -0.5675  0.1347  0.8123
 
              Baa    -0.0563    -7.550    -2.694    -2.519  0.5980  0.3916  0.6993
    30 C(13)  Bbb     0.0169     2.267     0.809     0.756  0.7724 -0.5146 -0.3723
              Bcc     0.0394     5.283     1.885     1.762  0.2140  0.7628 -0.6102
 
              Baa    -0.0603   -32.162   -11.476   -10.728  0.6524  0.5612  0.5094
    31 H(1)   Bbb     0.0015     0.818     0.292     0.273  0.7440 -0.6023 -0.2894
              Bcc     0.0587    31.344    11.184    10.455 -0.1444 -0.5677  0.8104
 
              Baa    -0.0372    -4.985    -1.779    -1.663  0.2977  0.4739  0.8288
    32 C(13)  Bbb    -0.0107    -1.431    -0.511    -0.477  0.8582 -0.5131 -0.0149
              Bcc     0.0478     6.417     2.290     2.140  0.4181  0.7157 -0.5594
 
              Baa    -0.0238   -12.699    -4.531    -4.236  0.2939  0.7375  0.6080
    33 H(1)   Bbb    -0.0147    -7.829    -2.794    -2.612  0.9154 -0.4002  0.0429
              Bcc     0.0385    20.528     7.325     6.847 -0.2750 -0.5439  0.7928
 
              Baa    -0.0163    -8.711    -3.108    -2.906  0.2075  0.3835  0.8999
    34 H(1)   Bbb    -0.0106    -5.641    -2.013    -1.882  0.8786 -0.4775  0.0009
              Bcc     0.0269    14.353     5.121     4.788  0.4301  0.7905 -0.4361
 
              Baa    -0.0155    -2.086    -0.744    -0.696  0.6548  0.5924 -0.4693
    35 C(13)  Bbb    -0.0062    -0.836    -0.298    -0.279  0.7557 -0.5032  0.4192
              Bcc     0.0218     2.922     1.043     0.975 -0.0122  0.6292  0.7772
 
              Baa    -0.0099    -5.265    -1.879    -1.756 -0.5159 -0.4910  0.7020
    36 H(1)   Bbb    -0.0029    -1.521    -0.543    -0.507  0.8397 -0.4521  0.3008
              Bcc     0.0127     6.786     2.421     2.263  0.1697  0.7446  0.6455
 
              Baa    -0.0363    -4.867    -1.737    -1.624 -0.3808 -0.5421  0.7491
    37 C(13)  Bbb     0.0148     1.983     0.708     0.662  0.8231  0.1704  0.5417
              Bcc     0.0215     2.884     1.029     0.962 -0.4213  0.8229  0.3813
 
              Baa    -0.0283   -15.087    -5.383    -5.032  0.2446  0.7999 -0.5481
    38 H(1)   Bbb     0.0132     7.026     2.507     2.344  0.7613 -0.5085 -0.4024
              Bcc     0.0151     8.061     2.876     2.689  0.6006  0.3188  0.7333
 
              Baa    -0.0158    -8.421    -3.005    -2.809 -0.5042 -0.4126  0.7586
    39 H(1)   Bbb     0.0066     3.517     1.255     1.173  0.8529 -0.1004  0.5123
              Bcc     0.0092     4.904     1.750     1.636 -0.1352  0.9053  0.4026
 
              Baa    -0.0410    -5.507    -1.965    -1.837 -0.0685 -0.2990  0.9518
    40 C(13)  Bbb     0.0136     1.824     0.651     0.608  0.8255  0.5188  0.2223
              Bcc     0.0274     3.682     1.314     1.228 -0.5602  0.8009  0.2113
 
              Baa    -0.0740    -9.936    -3.546    -3.314  0.1381  0.9073 -0.3971
    41 C(13)  Bbb     0.0235     3.148     1.123     1.050  0.9843 -0.1702 -0.0465
              Bcc     0.0506     6.788     2.422     2.264  0.1098  0.3845  0.9166
 
              Baa    -0.0239    -3.208    -1.145    -1.070  0.1188 -0.2367  0.9643
    42 C(13)  Bbb    -0.0228    -3.063    -1.093    -1.022 -0.5997  0.7569  0.2597
              Bcc     0.0467     6.271     2.238     2.092  0.7914  0.6091  0.0520
 
              Baa    -0.0117    -6.262    -2.235    -2.089 -0.1616  0.3448  0.9246
    43 H(1)   Bbb    -0.0114    -6.075    -2.168    -2.026 -0.5769  0.7272 -0.3720
              Bcc     0.0231    12.337     4.402     4.115  0.8007  0.5936 -0.0814
 
              Baa    -0.0215   -11.483    -4.098    -3.830 -0.2236  0.0389  0.9739
    44 H(1)   Bbb    -0.0206   -10.968    -3.914    -3.658 -0.3672  0.9222 -0.1212
              Bcc     0.0421    22.451     8.011     7.489  0.9029  0.3847  0.1919
 
              Baa    -0.0216   -11.500    -4.103    -3.836  0.1157 -0.3594  0.9260
    45 H(1)   Bbb    -0.0180    -9.600    -3.425    -3.202  0.7680 -0.5588 -0.3129
              Bcc     0.0395    21.100     7.529     7.038  0.6299  0.7473  0.2114
 
              Baa    -0.0338    -4.532    -1.617    -1.512  0.8644  0.4960  0.0829
    46 C(13)  Bbb     0.0143     1.918     0.684     0.640 -0.1955  0.1795  0.9641
              Bcc     0.0195     2.614     0.933     0.872 -0.4633  0.8496 -0.2521
 
              Baa    -0.0140    -7.495    -2.674    -2.500  0.8962  0.4389 -0.0646
    47 H(1)   Bbb     0.0056     2.963     1.057     0.988 -0.0318  0.2087  0.9775
              Bcc     0.0085     4.532     1.617     1.512 -0.4425  0.8740 -0.2010
 
              Baa    -0.0296   -15.767    -5.626    -5.259  0.6594  0.7230  0.2061
    48 H(1)   Bbb     0.0134     7.165     2.557     2.390 -0.5623  0.2923  0.7735
              Bcc     0.0161     8.602     3.069     2.869 -0.4990  0.6259 -0.5994
 
              Baa    -0.0286   -15.249    -5.441    -5.086  0.9362  0.1940  0.2929
    49 H(1)   Bbb     0.0104     5.555     1.982     1.853 -0.3174  0.1092  0.9420
              Bcc     0.0182     9.694     3.459     3.234 -0.1508  0.9749 -0.1639
 
              Baa    -0.0083    -1.109    -0.396    -0.370  0.1513  0.8688 -0.4714
    50 C(13)  Bbb    -0.0060    -0.812    -0.290    -0.271  0.9654 -0.0273  0.2595
              Bcc     0.0143     1.921     0.685     0.641 -0.2126  0.4944  0.8428
 
              Baa    -0.0047    -2.525    -0.901    -0.842  0.5154  0.7781 -0.3591
    51 H(1)   Bbb    -0.0030    -1.618    -0.577    -0.540  0.8293 -0.3472  0.4379
              Bcc     0.0078     4.142     1.478     1.382 -0.2161  0.5235  0.8242
 
              Baa    -0.0127    -1.709    -0.610    -0.570  0.6219  0.7828  0.0215
    52 C(13)  Bbb    -0.0080    -1.069    -0.382    -0.357  0.6661 -0.5432  0.5111
              Bcc     0.0207     2.778     0.991     0.927 -0.4118  0.3035  0.8593
 
              Baa    -0.0066    -3.496    -1.247    -1.166  0.3715  0.9281  0.0250
    53 H(1)   Bbb    -0.0055    -2.922    -1.043    -0.975  0.7504 -0.3160  0.5806
              Bcc     0.0120     6.418     2.290     2.141 -0.5468  0.1969  0.8138
 
              Baa    -0.0134    -1.802    -0.643    -0.601  0.1495 -0.0583  0.9870
    54 C(13)  Bbb     0.0035     0.469     0.167     0.157  0.7799 -0.6067 -0.1540
              Bcc     0.0099     1.333     0.476     0.445  0.6078  0.7928 -0.0452
 
              Baa    -0.0064    -3.417    -1.219    -1.140  0.0230 -0.1158  0.9930
    55 H(1)   Bbb     0.0024     1.282     0.457     0.428  0.9330 -0.3543 -0.0629
              Bcc     0.0040     2.135     0.762     0.712  0.3591  0.9279  0.1000
 
              Baa    -0.0156    -2.100    -0.749    -0.700  0.4956  0.4030  0.7694
    56 C(13)  Bbb     0.0009     0.127     0.045     0.042  0.8011 -0.5544 -0.2256
              Bcc     0.0147     1.973     0.704     0.658  0.3357  0.7281 -0.5976
 
              Baa    -0.0106    -5.650    -2.016    -1.885  0.6222  0.6063  0.4953
    57 H(1)   Bbb    -0.0011    -0.574    -0.205    -0.191  0.7764 -0.5590 -0.2910
              Bcc     0.0117     6.224     2.221     2.076 -0.1004 -0.5656  0.8186
 
              Baa    -0.0227    -3.048    -1.088    -1.017  0.2435 -0.6408  0.7281
    58 C(13)  Bbb    -0.0022    -0.295    -0.105    -0.098  0.8308 -0.2495 -0.4975
              Bcc     0.0249     3.343     1.193     1.115  0.5005  0.7260  0.4716
 
              Baa    -0.0133    -7.118    -2.540    -2.374 -0.0580  0.8603 -0.5065
    59 H(1)   Bbb    -0.0046    -2.457    -0.877    -0.820  0.8041 -0.2604 -0.5344
              Bcc     0.0179     9.575     3.417     3.194  0.5916  0.4383  0.6767
 
              Baa    -0.0135    -7.182    -2.563    -2.396  0.4363 -0.5733  0.6935
    60 H(1)   Bbb    -0.0001    -0.075    -0.027    -0.025  0.7295 -0.2258 -0.6456
              Bcc     0.0136     7.257     2.589     2.421  0.5267  0.7876  0.3197
 
              Baa    -0.0136    -7.259    -2.590    -2.421  0.1042 -0.5591  0.8226
    61 H(1)   Bbb    -0.0003    -0.146    -0.052    -0.049  0.8820 -0.3302 -0.3362
              Bcc     0.0139     7.405     2.642     2.470  0.4595  0.7605  0.4587
 
              Baa    -0.0099    -1.335    -0.476    -0.445  0.4392  0.2337  0.8675
    62 C(13)  Bbb     0.0037     0.493     0.176     0.165  0.8982 -0.0933 -0.4296
              Bcc     0.0063     0.842     0.300     0.281 -0.0195  0.9678 -0.2509
 
              Baa    -0.0044    -2.354    -0.840    -0.785  0.4586  0.3694  0.8082
    63 H(1)   Bbb     0.0003     0.186     0.066     0.062  0.8331 -0.4954 -0.2462
              Bcc     0.0041     2.168     0.774     0.723  0.3094  0.7862 -0.5349
 
              Baa    -0.0249    -3.346    -1.194    -1.116  0.2341  0.8776 -0.4183
    64 C(13)  Bbb    -0.0137    -1.843    -0.658    -0.615  0.9637 -0.2664 -0.0197
              Bcc     0.0387     5.188     1.851     1.731  0.1287  0.3985  0.9081
 
              Baa    -0.0142    -7.588    -2.707    -2.531  0.2330  0.8658 -0.4428
    65 H(1)   Bbb    -0.0066    -3.505    -1.251    -1.169  0.9318 -0.3291 -0.1533
              Bcc     0.0208    11.093     3.958     3.700  0.2784  0.3769  0.8834
 
              Baa    -0.0137    -7.316    -2.611    -2.441  0.2847  0.9515 -0.1165
    66 H(1)   Bbb    -0.0066    -3.509    -1.252    -1.170  0.9583 -0.2854  0.0110
              Bcc     0.0203    10.825     3.863     3.611  0.0228  0.1148  0.9931
 
              Baa    -0.0132    -7.028    -2.508    -2.344  0.3632  0.7599 -0.5392
    67 H(1)   Bbb    -0.0071    -3.783    -1.350    -1.262  0.9277 -0.3487  0.1335
              Bcc     0.0203    10.811     3.858     3.606  0.0866  0.5487  0.8315
 
              Baa    -0.0462   -24.630    -8.788    -8.216  0.7431 -0.6556  0.1341
    68 H(1)   Bbb    -0.0009    -0.461    -0.165    -0.154 -0.0376  0.1592  0.9865
              Bcc     0.0470    25.091     8.953     8.369  0.6681  0.7381 -0.0937
 
              Baa    -0.0293   -15.644    -5.582    -5.218 -0.4341  0.8920  0.1261
    69 H(1)   Bbb    -0.0091    -4.849    -1.730    -1.617  0.4525  0.0949  0.8867
              Bcc     0.0384    20.492     7.312     6.835  0.7790  0.4420 -0.4448
 
              Baa    -0.0345   -18.394    -6.563    -6.136  0.0359 -0.0676  0.9971
    70 H(1)   Bbb    -0.0137    -7.304    -2.606    -2.436  0.9683 -0.2444 -0.0515
              Bcc     0.0482    25.698     9.170     8.572  0.2472  0.9673  0.0567
 
              Baa    -0.0287   -15.297    -5.458    -5.102  0.1675  0.4523  0.8760
    71 H(1)   Bbb    -0.0121    -6.454    -2.303    -2.153  0.9807 -0.1678 -0.1009
              Bcc     0.0408    21.751     7.761     7.255  0.1014  0.8760 -0.4716
 

 ---------------------------------------------------------------------------------

 No NMR shielding tensors so no spin-rotation constants.
 Leave Link  601 at Wed Sep 10 18:03:06 2025, MaxMem=  3221225472 cpu:               4.3 elap:               0.6
 (Enter /mnt/research/peralta/software/gaussian/g16B.03//g16/l9999.exe)

 Test job not archived.
 1\1\GINC-AMR-127\SP\UPBEh1PBE\Gen\C22H32Cl3Fe3N4O7(6)\K0102371\10-Sep-
 2025\0\\#p nosymm test PBEh1PBE/Gen geom=CheckPoint guess=read scf(con
 ver=8) iop(4/151=1)\\SCF calculation flipping: 1 and 3 atoms Fe3 PBEh1
 PBE\\0,6\Fe,0,-0.439941,0.175786,10.830498\Fe,0,2.377917,2.399541,10.1
 18445\Fe,0,-0.538104,3.149791,10.365879\O,0,-1.572873,1.774281,11.3490
 62\O,0,1.08689,3.818712,9.430202\O,0,0.793712,1.502268,10.43966\Cl,0,0
 .500735,-1.841989,10.28472\Cl,0,4.061527,0.979902,10.875756\Cl,0,-2.04
 5629,4.839339,10.360254\O,0,-1.452491,0.232414,9.035491\O,0,2.440929,3
 .450852,11.884644\O,0,-1.284914,2.433222,8.599011\O,0,0.24124,3.808827
 ,12.13259\N,0,-2.253102,-0.827907,11.766118\N,0,0.10104,-0.092492,12.9
 08186\N,0,2.703519,1.654227,8.116747\N,0,3.819427,3.867722,9.183296\C,
 0,-2.955108,1.513169,11.468528\C,0,1.922604,0.721133,7.531337\H,0,1.12
 8478,0.437129,7.968628\C,0,-1.687659,1.271967,8.338006\C,0,-3.087223,0
 .259392,12.319401\H,0,-2.802896,0.456458,13.246988\H,0,-4.034362,-0.02
 7837,12.342157\C,0,4.627274,3.116901,8.20907\H,0,5.378447,2.674569,8.6
 78303\H,0,5.009005,3.745668,7.546489\C,0,1.677133,5.095469,9.271916\C,
 0,3.810475,2.083276,7.497515\C,0,1.103427,0.564236,13.520041\H,0,1.634
 913,1.166721,13.013083\C,0,2.971267,4.879776,8.487491\H,0,2.75916,4.56
 59,7.572834\H,0,3.46413,5.735248,8.414351\C,0,2.257565,0.169685,6.3044
 36\H,0,1.699119,-0.486592,5.904513\C,0,-1.710298,-1.68609,12.829235\H,
 0,-1.33149,-2.507959,12.42783\H,0,-2.440538,-1.952889,13.442158\C,0,-0
 .63729,-0.968131,13.609544\C,0,1.423149,3.900651,12.509159\C,0,4.70642
 8,4.529322,10.170509\H,0,5.356019,5.092509,9.700136\H,0,5.181144,3.848
 175,10.691167\H,0,4.168271,5.084513,10.772652\C,0,-3.031206,-1.653331,
 10.818963\H,0,-3.741193,-2.124426,11.303107\H,0,-2.438543,-2.306316,10
 .391469\H,0,-3.429888,-1.07663,10.134224\C,0,3.411853,0.584586,5.66969
 6\H,0,3.66315,0.203928,4.836354\C,0,4.193193,1.551236,6.25223\H,0,4.98
 2098,1.857108,5.820293\C,0,-0.385618,-1.202707,14.952564\H,0,-0.912282
 ,-1.829714,15.434215\C,0,1.384555,0.391257,14.859415\H,0,2.079591,0.88
 841,15.274448\C,0,-2.522715,1.082034,7.095939\H,0,-2.709611,1.954824,6
 .691344\H,0,-3.366887,0.644654,7.333589\H,0,-2.034096,0.523252,6.45608
 7\C,0,0.63813,-0.518171,15.58971\H,0,0.823765,-0.670041,16.508924\C,0,
 1.661299,4.597152,13.806167\H,0,2.625524,4.686374,13.95682\H,0,1.26368
 6,4.075977,14.534654\H,0,1.251161,5.486795,13.779337\H,0,-3.3929,1.348
 043,10.485171\H,0,-3.455444,2.350544,11.952664\H,0,1.895308,5.532581,1
 0.245186\H,0,1.007782,5.753813,8.720125\\Version=ES64L-G16RevB.01\HF=-
 6772.3066579\S2=13.642507\S2-1=0.\S2A=21.651665\RMSD=1.824e-09\Dipole=
 0.5466665,-0.4109777,0.0486148\Quadrupole=-3.6398996,-25.7494229,29.38
 93225,38.2664739,-9.269577,-17.8983262\PG=C01 [X(C22H32Cl3Fe3N4O7)]\\@


 There are more things in heaven and earth, Horatio,
 than are dreamt of in your philosophy.
                   -- Hamlet, Act I, Scene 5
 Job cpu time:       0 days  6 hours 15 minutes 20.1 seconds.
 Elapsed time:       0 days  0 hours 47 minutes  0.8 seconds.
 File lengths (MBytes):  RWF=    896 Int=      0 D2E=      0 Chk=     52 Scr=     32
 Normal termination of Gaussian 16 at Wed Sep 10 18:03:07 2025.
Finished at Wed Sep 10 06:03:07 PM EDT 2025
